    5100
  i="       0 " time="       0.000 " E="    -2123.8743113770" Lattice="  39.61900000   0.00000000   0.00000000   0.00000000  35.36700000   0.00000000   0.00000000   0.00000000  35.19200000" Properties=species:S:1:frc:R:3
  C        -0.0171450030       -0.0032992569       -0.0138033512
  C         0.0006825793        0.0030416759        0.0268268931
  H         0.0149264459        0.0011853546       -0.0034338507
  H         0.0027159279        0.0191565418       -0.0173179456
  H        -0.0211443513       -0.0175884990        0.0157992092
  C         0.0023646089        0.0034345357       -0.0099648150
  O         0.0229769750        0.0190260233       -0.0071806834
  H        -0.0237131404       -0.0174481809        0.0049096191
  H         0.0029497412        0.0045720639       -0.0071637473
  O        -0.0064900044       -0.0063740189       -0.0029339072
  H        -0.0053078184        0.0075206892        0.0009573719
  H         0.0104354003       -0.0044583573        0.0013456362
  O         0.0012781091       -0.0047421630       -0.0265036445
  H         0.0291093832       -0.0184596835        0.0050258749
  H        -0.0298913779        0.0184850258        0.0330226095
  O         0.0145660775        0.0322840368        0.0044615003
  H        -0.0023722968       -0.0281796264       -0.0064672187
  H        -0.0176668650       -0.0053184531        0.0045503787
  O         0.0262997591        0.0219929811       -0.0029899724
  H        -0.0011669380       -0.0018105031        0.0013737989
  H        -0.0131335665       -0.0068115859       -0.0023648770
  O         0.0127691500        0.0282553088        0.0058013756
  H        -0.0129697196       -0.0174986989        0.0177812913
  H        -0.0068025321       -0.0144005934       -0.0229051654
  O        -0.0194579670       -0.0125959472       -0.0155328291
  H         0.0005648347        0.0252955903        0.0154935781
  H         0.0177358198       -0.0155200139       -0.0054051283
  O         0.0084529739        0.0040906316        0.0180195883
  H        -0.0179828945       -0.0249689143       -0.0086257122
  H         0.0071166651        0.0194024395       -0.0002922621
  O         0.0105013040       -0.0189536160       -0.0378724016
  H        -0.0155785736        0.0202754063        0.0175202726
  H         0.0099916279       -0.0072531377        0.0296432662
  O        -0.0232793904        0.0140248905       -0.0030632631
  H         0.0126615145       -0.0032935253        0.0024669223
  H         0.0069320010       -0.0105947166       -0.0091421206
  O        -0.0003047214        0.0011875905        0.0039520617
  H         0.0085426145       -0.0030143836       -0.0196829206
  H        -0.0087661366        0.0013374717        0.0149692627
  O        -0.0336314672        0.0179616828        0.0078835748
  H         0.0103591213       -0.0013848949       -0.0028338094
  H         0.0144536593       -0.0031489166       -0.0040140614
  O         0.0118171265       -0.0124195389       -0.0070364724
  H        -0.0076166980        0.0270198020       -0.0027808822
  H         0.0009370377       -0.0175156589        0.0095711139
  O        -0.0102698629       -0.0005209577       -0.0023508475
  H        -0.0084650284        0.0119182889        0.0010526423
  H         0.0181139074       -0.0091998035       -0.0006973310
  O        -0.0236476490       -0.0159894126        0.0340499161
  H         0.0005799316        0.0097126422       -0.0395272657
  H         0.0196751459        0.0052398800        0.0044058581
  O        -0.0457895516        0.0081636460        0.0158782630
  H         0.0069987016       -0.0198003504       -0.0230132941
  H         0.0446731652        0.0111341342        0.0107540169
  O        -0.0038062049        0.0184889241       -0.0196598197
  H         0.0033871634       -0.0187335686        0.0033846421
  H        -0.0016548035       -0.0025833915        0.0109773096
  O        -0.0061415660       -0.0072522188       -0.0059190083
  H         0.0077184368        0.0026739878        0.0065584907
  H        -0.0046941821       -0.0060773531       -0.0002546200
  O         0.0217372715        0.0458499136        0.0235879863
  H        -0.0006192024       -0.0297016395       -0.0001855729
  H        -0.0183557978       -0.0132142708       -0.0242287658
  O        -0.0007077769        0.0148286541       -0.0166143913
  H        -0.0110596043       -0.0046360170        0.0156630365
  H         0.0039408750       -0.0086588486        0.0001203329
  O         0.0212725375       -0.0275179575       -0.0161213235
  H        -0.0023413097        0.0026713359        0.0135060395
  H        -0.0184394130        0.0211204667       -0.0009463015
  O         0.0108061965       -0.0074625934        0.0236923640
  H        -0.0085061144        0.0135563639       -0.0036402400
  H         0.0015739068       -0.0072946349       -0.0217016199
  O         0.0008178430       -0.0090989732       -0.0188987412
  H        -0.0145036476        0.0079130705       -0.0115982209
  H         0.0124073102        0.0051360140        0.0373577103
  O        -0.0012184983       -0.0035019861        0.0141816872
  H        -0.0107260592       -0.0017425156       -0.0059175994
  H         0.0133893672        0.0043015785       -0.0012917925
  O         0.0204290553        0.0173224684        0.0235244709
  H        -0.0075953955       -0.0249242730       -0.0199547524
  H        -0.0160719896        0.0059129125       -0.0052852740
  O        -0.0047357998       -0.0077715972        0.0106709247
  H         0.0019104597       -0.0024532993        0.0071472234
  H         0.0022993960        0.0108763884       -0.0165472729
  O        -0.0235072890        0.0027202573       -0.0049893233
  H        -0.0120762501        0.0114024620        0.0030753662
  H         0.0345941963       -0.0105611612       -0.0003819129
  O        -0.0183552769       -0.0015970893        0.0068119688
  H         0.0076805810        0.0080458359       -0.0137125167
  H         0.0131362928        0.0011456348        0.0126098166
  O        -0.0114449345        0.0265411474        0.0187082960
  H        -0.0045437936       -0.0176040836        0.0084666462
  H         0.0151932256        0.0030592090       -0.0122272379
  O        -0.0375870088       -0.0066958863        0.0064602949
  H         0.0113666328       -0.0017818979        0.0086698620
  H         0.0091386628        0.0094023869       -0.0055642317
  O         0.0238908719       -0.0177711439        0.0208169993
  H        -0.0222414464        0.0018112322       -0.0046132158
  H         0.0019176358        0.0086911817       -0.0142689608
  O         0.0221748301        0.0098957853       -0.0385737424
  H        -0.0017308200        0.0140213986        0.0092688921
  H        -0.0214976181       -0.0144627064        0.0286791849
  O        -0.0130507046       -0.0195288373       -0.0096099129
  H         0.0029685212        0.0170189275        0.0028710114
  H         0.0112687848        0.0056653816        0.0074619011
  O        -0.0146994908       -0.0020608553        0.0106312731
  H         0.0020916686        0.0112266444       -0.0094051070
  H         0.0070592824       -0.0026057576       -0.0002835787
  O         0.0047805717        0.0006289002       -0.0028363203
  H         0.0022469817        0.0025119894       -0.0014539965
  H        -0.0013487139       -0.0019493189        0.0121692716
  O        -0.0247986299        0.0144827116       -0.0175926437
  H         0.0094342348       -0.0189154050       -0.0018861648
  H         0.0155080780       -0.0022365156        0.0219487448
  O         0.0226058165        0.0196969996        0.0010220226
  H        -0.0140869713       -0.0100498686       -0.0034962703
  H        -0.0063046366       -0.0096886315       -0.0003657416
  O         0.0187921559       -0.0015216537        0.0022644791
  H        -0.0013895038       -0.0017800349       -0.0026043580
  H        -0.0175377846        0.0022883180       -0.0003289232
  O         0.0019653585        0.0408092920        0.0625193359
  H        -0.0090801812       -0.0487616960       -0.0690323421
  H        -0.0034979574        0.0100283863        0.0078146589
  O        -0.0241064215        0.0257692224       -0.0119499578
  H         0.0036121811       -0.0164157887        0.0000333100
  H         0.0130768106       -0.0106888696        0.0107855099
  O        -0.0153285356        0.0075369038       -0.0060036441
  H         0.0099679947        0.0057569826       -0.0015607433
  H         0.0070380173       -0.0103728951        0.0019855915
  O        -0.0068470893       -0.0100324354        0.0223530977
  H         0.0104320191        0.0061140186       -0.0187574418
  H        -0.0062972997        0.0026511706        0.0014738894
  O         0.0121934404       -0.0008877508       -0.0248554075
  H        -0.0178791378       -0.0076744593        0.0142273762
  H         0.0079668141        0.0058035866        0.0112838519
  O        -0.0076520058       -0.0036321326        0.0118651964
  H         0.0130275123        0.0058205014       -0.0028695753
  H        -0.0028802439        0.0059298331       -0.0086196407
  O        -0.0100722523        0.0050554404        0.0145420429
  H         0.0032164223       -0.0038206203       -0.0022856458
  H         0.0088966044        0.0021413703       -0.0024995018
  O        -0.0066912460        0.0058217313       -0.0005156011
  H        -0.0012619023       -0.0090954917        0.0045551117
  H         0.0017150134       -0.0006208322        0.0025662033
  O         0.0123389542        0.0033589861       -0.0014169280
  H        -0.0081036294       -0.0028334226        0.0064660801
  H        -0.0057552419       -0.0045031049       -0.0055791723
  O        -0.0070153730       -0.0043852747       -0.0479475815
  H         0.0030271554        0.0258063363        0.0260496189
  H         0.0025673803       -0.0192459443        0.0255833114
  O         0.0245339143       -0.0069935365       -0.0352135523
  H        -0.0003900992        0.0172266353        0.0051323300
  H        -0.0194783543       -0.0106680761        0.0364468201
  O         0.0089459436       -0.0029820250       -0.0228059763
  H        -0.0002445787       -0.0054635653       -0.0034748811
  H        -0.0101517207        0.0097037138        0.0266408079
  O        -0.0087680782        0.0291165005        0.0061978451
  H        -0.0176526428       -0.0062318535        0.0030129180
  H         0.0181029157       -0.0214258556       -0.0079645899
  O         0.0111021087        0.0089755390       -0.0025814062
  H        -0.0246378669       -0.0146770958        0.0023186848
  H         0.0096416207        0.0026022482        0.0013109638
  O         0.0154862592        0.0406541538        0.0011043017
  H        -0.0095147736       -0.0026486576       -0.0009373454
  H        -0.0024738451       -0.0316219269        0.0033520403
  O         0.0405605968        0.0175841291       -0.0194649830
  H        -0.0427163628       -0.0026337098        0.0234808854
  H         0.0015721070       -0.0045981128       -0.0056652228
  O         0.0125098185       -0.0024275993        0.0027165188
  H        -0.0015163057        0.0007004328       -0.0009465659
  H        -0.0068728632       -0.0011918659       -0.0011792706
  O         0.0090731225        0.0136906602        0.0027019662
  H         0.0024765425       -0.0088579493       -0.0001359654
  H        -0.0013893740        0.0049145458       -0.0046883505
  O        -0.0066720278       -0.0124057813        0.0023970418
  H        -0.0128422685       -0.0088937978        0.0136363154
  H         0.0080394415        0.0200654791       -0.0157751073
  O        -0.0164683221       -0.0049805264       -0.0175845771
  H         0.0091776244       -0.0024318665        0.0068842761
  H         0.0064230508        0.0105279140        0.0117138508
  O         0.0163295998       -0.0447894115       -0.0050200869
  H        -0.0156391646        0.0063067196       -0.0001283196
  H        -0.0042586462        0.0385459835        0.0074605446
  O         0.0228060267        0.0056946456       -0.0140449221
  H        -0.0022103836        0.0053866871        0.0001379083
  H        -0.0182463332       -0.0101143905        0.0205418967
  O         0.0089287733       -0.0051105082       -0.0256642556
  H         0.0035931474       -0.0046713832        0.0175921384
  H        -0.0113891332        0.0120422117        0.0116462737
  O        -0.0189142927       -0.0032638782       -0.0037321949
  H         0.0057279537       -0.0011555701        0.0037895534
  H         0.0088089505        0.0065704972       -0.0002331005
  O         0.0219362012        0.0011513032        0.0163124542
  H        -0.0039846980        0.0012945293        0.0010547428
  H        -0.0137079490       -0.0013616342       -0.0164302209
  O        -0.0060444338        0.0035432657        0.0063086885
  H         0.0026122839       -0.0002665247       -0.0050562585
  H        -0.0050130530       -0.0011144669        0.0024273830
  O        -0.0341005247       -0.0320761048        0.0088226754
  H        -0.0013958108        0.0008147598        0.0010862672
  H         0.0412247518        0.0264277844       -0.0127649250
  O         0.0097900092       -0.0162226791       -0.0208510699
  H        -0.0015531518        0.0309363878        0.0183684414
  H        -0.0072538907       -0.0126052547       -0.0012667410
  O         0.0165037763       -0.0437290280       -0.0270608397
  H        -0.0023864534        0.0096268299       -0.0039108396
  H        -0.0156138309        0.0299786083        0.0254886346
  O         0.0314930915       -0.0077020261        0.0257157163
  H        -0.0175113538        0.0015042434       -0.0054245998
  H        -0.0118501708        0.0020599149       -0.0183662440
  O         0.0136431256       -0.0003083356        0.0245525382
  H        -0.0175583496        0.0073681112       -0.0202121221
  H         0.0027534101       -0.0097891500       -0.0070755406
  O        -0.0107562708        0.0099789141       -0.0053310351
  H         0.0060507145        0.0002591081        0.0025888701
  H         0.0032503866       -0.0084422248       -0.0021369197
  O        -0.0091492854       -0.0262507783        0.0247808786
  H         0.0008949795       -0.0077006250       -0.0195227826
  H         0.0114718813        0.0340517683       -0.0077567120
  O         0.0043668987       -0.0339178788       -0.0031935187
  H        -0.0070216087        0.0257885707       -0.0019760367
  H         0.0058002279        0.0081905429        0.0078224933
  O        -0.0098012156       -0.0015770805       -0.0091344348
  H         0.0058310591       -0.0030565833        0.0006152171
  H         0.0073483139       -0.0030679261        0.0065337904
  O        -0.0091850605        0.0290208113       -0.0186635520
  H         0.0047108399       -0.0272128580        0.0131952887
  H         0.0040277070       -0.0039955982        0.0072703687
  O         0.0136664967       -0.0066379729        0.0121114610
  H        -0.0089977747       -0.0037597490        0.0029737709
  H        -0.0018172350       -0.0006516451       -0.0079260101
  O        -0.0096225843        0.0076281890        0.0075249463
  H         0.0122697484        0.0112136097        0.0136443971
  H        -0.0006499064       -0.0119348020       -0.0206842437
  O         0.0073423946       -0.0207984235       -0.0054237829
  H        -0.0196180975        0.0207453771        0.0007944524
  H         0.0086528915       -0.0007881751        0.0103411978
  O        -0.0034806358        0.0020249459       -0.0030387310
  H         0.0044526736        0.0035890743        0.0027959888
  H         0.0040353406       -0.0028434163       -0.0002495597
  O         0.0036829708        0.0254723308       -0.0243368245
  H         0.0003008481       -0.0019912559        0.0048154558
  H        -0.0028377691       -0.0205145607        0.0172997150
  O         0.0106243827       -0.0044918246        0.0495790450
  H         0.0137878464        0.0016566492       -0.0320077493
  H        -0.0206125470        0.0015885450       -0.0199525889
  O        -0.0066535442       -0.0231624574       -0.0330804327
  H        -0.0075848460        0.0198792806        0.0140892808
  H         0.0226362409        0.0025190595        0.0191635056
  O        -0.0106415287       -0.0003000248        0.0224743739
  H        -0.0006789046       -0.0072773011       -0.0154470822
  H         0.0204408718        0.0099070674       -0.0050806410
  O        -0.0027870976        0.0092963486       -0.0159886081
  H        -0.0026370483        0.0067164662        0.0096506707
  H         0.0103901718       -0.0164399728        0.0105417887
  O        -0.0317032030        0.0231637119       -0.0192151920
  H         0.0255448846        0.0009369187        0.0090073832
  H         0.0079074297       -0.0135536669        0.0082612779
  O         0.0075032103        0.0335388404       -0.0056244128
  H        -0.0127381164       -0.0156883796        0.0060117558
  H         0.0082940540       -0.0161654861       -0.0043954284
  O         0.0073289487       -0.0075621014        0.0135789579
  H        -0.0010224630       -0.0013468298        0.0055532827
  H        -0.0175071057        0.0099967026       -0.0291770978
  O        -0.0047362630       -0.0114049209       -0.0253608231
  H         0.0076393915        0.0034109062        0.0187780041
  H        -0.0045882506        0.0091524208        0.0084906163
  O        -0.0147652567        0.0250221968       -0.0198394803
  H        -0.0117627165       -0.0207413632        0.0156986668
  H         0.0279288676       -0.0052973338       -0.0053306679
  O         0.0119921304        0.0094739159       -0.0125127953
  H        -0.0073974557       -0.0042584347        0.0042039802
  H         0.0023784232        0.0006064410        0.0125938268
  O         0.0087216757        0.0261225757       -0.0382836983
  H        -0.0223477944       -0.0185569853        0.0134507977
  H         0.0113893296       -0.0088879597        0.0255961616
  O         0.0260681392       -0.0126426765       -0.0043539288
  H        -0.0337560430        0.0093604911        0.0039691175
  H         0.0047065774       -0.0025337876        0.0013659293
  O         0.0137796798        0.0013874741       -0.0060729254
  H        -0.0167271512        0.0047362624       -0.0012521037
  H         0.0011142352       -0.0000668483        0.0028727616
  O         0.0290118962       -0.0044612579       -0.0173950382
  H        -0.0162135975       -0.0042219897        0.0133776826
  H        -0.0028168015        0.0097355022        0.0044659018
  O        -0.0261697503        0.0099581197       -0.0160099532
  H         0.0099952044       -0.0075461670        0.0083074305
  H         0.0098258396       -0.0065227273        0.0043530736
  O         0.0094504910       -0.0360513589        0.0298898880
  H         0.0044159939        0.0258587107        0.0001142732
  H        -0.0214617019        0.0092207676       -0.0284413543
  O        -0.0233515346        0.0049821960       -0.0248286070
  H         0.0199583379       -0.0025103344        0.0217059960
  H         0.0081358937       -0.0089191127        0.0006878289
  O        -0.0190841825       -0.0012157708        0.0278625653
  H         0.0099557841       -0.0014022692       -0.0226565770
  H         0.0017140720        0.0036000124       -0.0013011337
  O         0.0149921223        0.0285876188        0.0120381847
  H        -0.0009673689       -0.0009249336       -0.0036150120
  H        -0.0171381067       -0.0251188409       -0.0057926321
  O        -0.0035637700       -0.0255409326       -0.0461158442
  H        -0.0022698602        0.0000796149       -0.0088145592
  H         0.0010013608        0.0234022477        0.0487627908
  O         0.0137538063        0.0108987023       -0.0117421682
  H        -0.0069567280       -0.0070539091        0.0083313584
  H        -0.0072078260        0.0000174105        0.0059832010
  O         0.0505136247       -0.0185442744       -0.0276359113
  H        -0.0696877374        0.0074723305        0.0161349073
  H         0.0069166627        0.0093727362        0.0070891106
  O         0.0063267484        0.0123517113       -0.0144673642
  H        -0.0072874062        0.0010942577       -0.0013595966
  H         0.0032976266       -0.0034175568        0.0045894943
  O        -0.0144387112       -0.0033022906       -0.0050687928
  H         0.0096860905        0.0126897917       -0.0000195161
  H         0.0114108290       -0.0133914210        0.0008795302
  O        -0.0281355779        0.0243309849       -0.0233664575
  H         0.0259116045       -0.0012323317        0.0080668895
  H         0.0043665620       -0.0213987082        0.0168703040
  O        -0.0129880609       -0.0467853116        0.0028163865
  H        -0.0079265310        0.0309861919        0.0151979215
  H         0.0134717355        0.0106420891       -0.0190524321
  O         0.0073701267        0.0016116310        0.0128971418
  H        -0.0088820829        0.0053832774       -0.0014585192
  H         0.0058762261       -0.0056368543       -0.0107475526
  O         0.0022582278       -0.0003364391       -0.0005227291
  H        -0.0095289856        0.0028256734       -0.0028951185
  H         0.0074057034       -0.0023247766       -0.0002541752
  O         0.0112852695       -0.0069834790        0.0164986589
  H        -0.0043909458       -0.0003473878       -0.0163745503
  H        -0.0064865554        0.0051997843        0.0016276151
  O        -0.0100562518        0.0170775825        0.0012451115
  H         0.0094022307       -0.0065362945       -0.0023061156
  H        -0.0021111143       -0.0118932590       -0.0020057570
  O        -0.0098120338       -0.0179547213       -0.0028543338
  H         0.0030216088        0.0093874427        0.0031567849
  H         0.0033499954        0.0039219962       -0.0013357819
  O        -0.0240740421        0.0231788814       -0.0412993160
  H         0.0155434606       -0.0384883233        0.0223561611
  H         0.0120126605        0.0157779260        0.0199480052
  O         0.0231639560        0.0052444062        0.0152793309
  H        -0.0203090050        0.0067043568       -0.0078697380
  H         0.0034926262       -0.0114892661       -0.0018215149
  O        -0.0064127879        0.0040930172        0.0103788881
  H        -0.0008848999       -0.0022330153       -0.0060259872
  H         0.0079034886       -0.0017789580       -0.0026733798
  O         0.0067288004        0.0045312961        0.0060187675
  H        -0.0086722226        0.0014848633        0.0060028791
  H        -0.0030939559       -0.0064097774       -0.0094112570
  O         0.0114631479        0.0094570602        0.0092018060
  H        -0.0016100896       -0.0153661958        0.0019449284
  H        -0.0065493974        0.0099783640       -0.0104518525
  O        -0.0109192338       -0.0274699120       -0.0328293105
  H         0.0119877719       -0.0093150775        0.0009149226
  H        -0.0087062828        0.0236949161        0.0176678735
  O        -0.0116482058        0.0054390281       -0.0023475561
  H         0.0265281906        0.0026761817        0.0004183602
  H        -0.0130969386        0.0026715762       -0.0010551457
  O        -0.0274245186        0.0059505083        0.0158344466
  H         0.0103854483        0.0004726136       -0.0058485881
  H         0.0103331353       -0.0040646071       -0.0100806810
  O         0.0165301172        0.0116247916        0.0565860751
  H        -0.0249240425        0.0198912451       -0.0419797031
  H         0.0077099083       -0.0308923670       -0.0196689018
  O         0.0009423578       -0.0095780261       -0.0176969749
  H         0.0054743051        0.0058593340        0.0031456814
  H        -0.0047278499        0.0104372884        0.0101506483
  O         0.0261904106       -0.0008907717       -0.0179324374
  H        -0.0197188848       -0.0122927531        0.0096762235
  H        -0.0076967613        0.0144743405        0.0067763246
  O         0.0254911760        0.0109930129       -0.0142945562
  H         0.0064868892       -0.0207930701        0.0046866190
  H        -0.0279057050        0.0084711764        0.0068494344
  O         0.0111246398       -0.0166803104        0.0217149209
  H         0.0070701059       -0.0020288475       -0.0120624469
  H        -0.0069742390        0.0106191240       -0.0051456951
  O        -0.0077500423        0.0054124743        0.0128673736
  H         0.0069501075       -0.0013216027       -0.0119620251
  H        -0.0020550573       -0.0038523994       -0.0033376580
  O         0.0257246898        0.0001874653        0.0264826506
  H        -0.0051921929       -0.0185568193        0.0036155426
  H        -0.0129523855        0.0052620177       -0.0223986266
  O        -0.0354758934        0.0137661732        0.0261728386
  H         0.0201309823       -0.0238443633       -0.0254455834
  H         0.0014220052        0.0049602737        0.0032436896
  O         0.0013940710        0.0320220908       -0.0186504251
  H        -0.0058959449       -0.0097452204        0.0063691787
  H         0.0053659284       -0.0163786862        0.0119768884
  O        -0.0005707136       -0.0373956644        0.0138534644
  H         0.0026621017        0.0128999507       -0.0042263883
  H        -0.0018548843        0.0194062292       -0.0014318346
  O        -0.0055205192       -0.0089178465       -0.0087550336
  H         0.0117249496        0.0068608737        0.0165521092
  H        -0.0113614560       -0.0064214928       -0.0094721321
  O        -0.0145025041       -0.0024816604       -0.0001103209
  H         0.0128897892       -0.0014828872       -0.0030187557
  H         0.0053465689       -0.0039152904        0.0043294411
  O         0.0204803669        0.0120441442       -0.0245531622
  H        -0.0237531930        0.0016406457        0.0131106081
  H         0.0063318430       -0.0138720519        0.0152392276
  O        -0.0109177969       -0.0351843155        0.0048235752
  H        -0.0079324917        0.0354912218       -0.0008175891
  H         0.0214026926        0.0037939312       -0.0038912805
  O         0.0270556032       -0.0288251585       -0.0086911659
  H        -0.0013787889        0.0371007439        0.0105875113
  H        -0.0201822980       -0.0016560557        0.0045000704
  O         0.0081899664        0.0073578236       -0.0078978212
  H        -0.0045223541       -0.0022512514       -0.0047522619
  H        -0.0044247795       -0.0065133580        0.0108922667
  O        -0.0145301253       -0.0068397233       -0.0265612806
  H         0.0156159761        0.0050135910        0.0023966905
  H         0.0067384039        0.0033168786        0.0254339441
  O        -0.0089937799       -0.0033427356       -0.0172685269
  H        -0.0051262316        0.0042244515        0.0060546086
  H         0.0145192075       -0.0028750940        0.0094759724
  O         0.0064003733        0.0014358867        0.0099121481
  H        -0.0069970661       -0.0094950478       -0.0083839080
  H         0.0009910963        0.0087632696       -0.0014114277
  O         0.0009304981       -0.0105994537        0.0016810935
  H         0.0021017765        0.0040974003        0.0005672369
  H         0.0015731239        0.0066169362       -0.0029531940
  O         0.0296181146        0.0144440438        0.0142533239
  H        -0.0183141855       -0.0168674051        0.0077679143
  H        -0.0058049304        0.0001399677       -0.0171440863
  O        -0.0120981920       -0.0001373978       -0.0056348789
  H         0.0035809569        0.0042905928        0.0156821857
  H         0.0055457466        0.0018378887       -0.0044296280
  O         0.0513248203        0.0316126009        0.0076593682
  H        -0.0060206562       -0.0115766671       -0.0122125219
  H        -0.0385916946       -0.0172340800        0.0026216511
  O         0.0192650834        0.0023638662       -0.0162437718
  H        -0.0001170961       -0.0095494101        0.0104884927
  H        -0.0204836603        0.0081449895        0.0037724332
  O         0.0058654638       -0.0345911089        0.0248294987
  H        -0.0021116623        0.0171659673       -0.0183062487
  H        -0.0125931609        0.0205909943       -0.0042672030
  O         0.0234093611       -0.0101795209        0.0060964632
  H        -0.0163850825        0.0149462292       -0.0058309986
  H        -0.0069288010       -0.0027430344        0.0030202926
  O        -0.0046207294        0.0136042607        0.0184971448
  H         0.0103674646        0.0045155362       -0.0161386292
  H        -0.0092118544       -0.0116841950       -0.0022259966
  O        -0.0220032723        0.0275921209       -0.0005684339
  H         0.0088286258       -0.0176331691       -0.0012527972
  H         0.0085137098       -0.0048111652        0.0055187923
  O        -0.0260271017        0.0008519325        0.0544080673
  H         0.0105071210        0.0033937049       -0.0532107917
  H         0.0192818183       -0.0063414129       -0.0014348502
  O        -0.0255069187       -0.0134397271        0.0259534901
  H         0.0344319547        0.0074542269       -0.0209408011
  H        -0.0060018797        0.0023791484       -0.0024710410
  O        -0.0046382148        0.0055410301       -0.0228693200
  H        -0.0008139574       -0.0009225339        0.0201404686
  H         0.0075323687       -0.0030945669        0.0048812968
  O         0.0186299336        0.0101278812        0.1038904952
  H        -0.0065477064       -0.0218045838       -0.0821737689
  H        -0.0085283581        0.0176736206       -0.0087236668
  O        -0.0173599939       -0.0045881713       -0.0255815369
  H        -0.0005026283       -0.0149460315        0.0124844855