 *******************************************************************************
 *                            RESTART INFORMATION                              *
 *******************************************************************************
 *                                                                             *
 *    RESTART FILE NAME: restart.rst                                           *
 *                                                                             *
 * RESTARTED QUANTITIES:                                                       *
 *                       CELL                                                  *
 *                       COORDINATES                                           *
 *                       RANDOM NUMBER GENERATOR                               *
 *                       VELOCITIES                                            *
 *                       MD COUNTERS                                           *
 *                       MD AVERAGES                                           *
 *                       PARTICLE THERMOSTAT                                   *
 *                       REAL TIME PROPAGATION                                 *
 *                       PINT BEAD POSITIONS                                   *
 *                       PINT BEAD VELOCITIES                                  *
 *                       PINT NOSE THERMOSTAT                                  *
 *                       PINT GLE THERMOSTAT                                   *
 *                       HELIUM BEAD POSITIONS                                 *
 *                       HELIUM PERMUTATION STATE                              *
 *                       HELIUM FORCES ON SOLUTE                               *
 *                       HELIUM RNG STATE                                      *
 *******************************************************************************

 DBCSR| Multiplication driver                                                SMM
 DBCSR| Multiplication stack size                                           1000
 DBCSR| Multiplication size stacks                                             0


  **** **** ******  **  PROGRAM STARTED AT               2012-06-04 18:14:15.402
 ***** ** ***  *** **   PROGRAM STARTED ON                                node20
 **    ****   ******    PROGRAM STARTED BY                                      
 ***** **    ** ** **   PROGRAM PROCESS ID                                  9195
  **** **  *******  **  PROGRAM STARTED IN     /home/lam81/test_cp2k_silica/orig

 CP2K| version string:                    CP2K version 2.3 (Development Version)
 CP2K| source code revision number:                                        12243
 CP2K| is freely available from                             http://www.cp2k.org/
 CP2K| Program compiled at                          Mon Jun  4 17:27:02 BST 2012
 CP2K| Program compiled on                                                womble
 CP2K| Program compiled for                                                ifort
 CP2K| Input file name                                                  cp2k.inp
 
 GLOBAL| Force Environment number                                              1
 GLOBAL| Basis set file name                                           BASIS_SET
 GLOBAL| Geminal file name                                         BASIS_GEMINAL
 GLOBAL| Potential file name                                           POTENTIAL
 GLOBAL| MM Potential file name                                     MM_POTENTIAL
 GLOBAL| Coordinate file name                            dopa_A_water_quartz.xyz
 GLOBAL| Method name                                                        CP2K
 GLOBAL| Project name                                                        nvt
 GLOBAL| Preferred FFT library                                             FFTW3
 GLOBAL| Run type                                                             MD
 GLOBAL| All-to-all communication in single precision                          F
 GLOBAL| FFTs using library dependent lengths                                  F
 GLOBAL| Global print level                                                  LOW
 GLOBAL| Total number of message passing processes                             1
 GLOBAL| Number of threads for this process                                    1
 GLOBAL| This output is from process                                           0

 MEMORY| system memory details [Kb]
 MEMORY|                        rank 0           min           max       average
 MEMORY| MemTotal                    0             0             0             0
 MEMORY| MemFree                     0             0             0             0
 MEMORY| Buffers                     0             0             0             0
 MEMORY| Cached                      0             0             0             0
 MEMORY| Slab                        0             0             0             0
 MEMORY| SReclaimable                0             0             0             0
 MEMORY| MemLikelyFree               0             0             0             0

 WARNING : FFT library FFTW3 is not available  Trying FFTSG as a default


                      ************* ******** ***********   
                     ************* **********************  
                     ****     **** ****      ***********   
                     ******** ****  *******     ****       
                     *******  ****   *******   ****        
                     ****     ****       ****  ****        
                     ****     **** **********  ****        
                      ****     **** ********    ****       
                     FRONTIERS IN SIMULATION TECHNOLOGY    
                                                           
                        C.J. Mundy, S. Balasubramanian,    
                     Ken Bagchi, J. Hutter, Ari Seitsonen  
                      IFW Kuo, T. Laino, J. VandeVondele   
                                 Version 1.0               

                                                           


 EWALD| Summation is done by:                                               SPME
 EWALD| Alpha parameter [       ANGSTROM^-1]                              0.3500
 EWALD| Real Space Cutoff [          ANGSTROM]                            9.6398
 EWALD| G-space max. Miller index                         30        60        32
 EWALD| Spline interpolation order                                             6

 *** 18:14:16 WARNING in atoms_input:read_atoms_input Overwriting     ***
 *** coordinates. Active coordinates read from &COORD section. Active ***
 *** coordinates READ from &COORD section atoms_input.F line    129   ***

 
 FORCEFIELD| WARNING: A non Critical ForceField parameter is missing! CP2K GOES!
 FORCEFIELD| Non critical parameters are:Urey-Bradley,Torsions,Impropers, Opbends and 1-4
 FORCEFIELD| All missing parameters will not contribute to the potential energy!
 FORCEFIELD| Activate the print key FF_INFO to have a list of missing parameters
 
 CHARGE_INFO| Total Charge of the Classical System:                     0.000000

 SPLINE_INFO| Generating 120 splines for the NONBONDED14 interactions due to 15 different atomic kinds
 ...12
 ...24
 ...36
 ...48
 ...60
 ...72
 ...84
 ...96
 ...108
 ...120

 SPLINE_INFO| Number of unique splines computed:            36

 SPLINE_INFO| Done

 *** 18:14:42 WARNING in force_fields_all:force_field_pack_nonbond ***
 *** Multiple NONBONDED declaration: SIO and SIO OVERWRITING!      ***
 *** force_fields_all.F line   3069                                ***


 *** 18:14:42 WARNING in force_fields_all:force_field_pack_nonbond ***
 *** Multiple NONBONDED declaration: SIO and OSB OVERWRITING!      ***
 *** force_fields_all.F line   3069                                ***


 *** 18:14:42 WARNING in force_fields_all:force_field_pack_nonbond ***
 *** Multiple NONBONDED declaration: SIO and OSI OVERWRITING!      ***
 *** force_fields_all.F line   3069                                ***


 *** 18:14:42 WARNING in force_fields_all:force_field_pack_nonbond ***
 *** Multiple NONBONDED declaration: SIO and HSI OVERWRITING!      ***
 *** force_fields_all.F line   3069                                ***


 *** 18:14:42 WARNING in force_fields_all:force_field_pack_nonbond ***
 *** Multiple NONBONDED declaration: SIO and OT OVERWRITING!       ***
 *** force_fields_all.F line   3069                                ***


 *** 18:14:42 WARNING in force_fields_all:force_field_pack_nonbond ***
 *** Multiple NONBONDED declaration: SIO and HT OVERWRITING!       ***
 *** force_fields_all.F line   3069                                ***


 *** 18:14:42 WARNING in force_fields_all:force_field_pack_nonbond ***
 *** Multiple NONBONDED declaration: OSB and OSB OVERWRITING!      ***
 *** force_fields_all.F line   3069                                ***


 *** 18:14:42 WARNING in force_fields_all:force_field_pack_nonbond ***
 *** Multiple NONBONDED declaration: OSB and OSI OVERWRITING!      ***
 *** force_fields_all.F line   3069                                ***


 *** 18:14:42 WARNING in force_fields_all:force_field_pack_nonbond ***
 *** Multiple NONBONDED declaration: OSB and HSI OVERWRITING!      ***
 *** force_fields_all.F line   3069                                ***


 *** 18:14:42 WARNING in force_fields_all:force_field_pack_nonbond ***
 *** Multiple NONBONDED declaration: OSB and OT OVERWRITING!       ***
 *** force_fields_all.F line   3069                                ***


 *** 18:14:42 WARNING in force_fields_all:force_field_pack_nonbond ***
 *** Multiple NONBONDED declaration: OSB and HT OVERWRITING!       ***
 *** force_fields_all.F line   3069                                ***


 *** 18:14:42 WARNING in force_fields_all:force_field_pack_nonbond ***
 *** Multiple NONBONDED declaration: OSI and OSI OVERWRITING!      ***
 *** force_fields_all.F line   3069                                ***


 *** 18:14:42 WARNING in force_fields_all:force_field_pack_nonbond ***
 *** Multiple NONBONDED declaration: OSI and HSI OVERWRITING!      ***
 *** force_fields_all.F line   3069                                ***


 *** 18:14:42 WARNING in force_fields_all:force_field_pack_nonbond ***
 *** Multiple NONBONDED declaration: OSI and OT OVERWRITING!       ***
 *** force_fields_all.F line   3069                                ***


 *** 18:14:42 WARNING in force_fields_all:force_field_pack_nonbond ***
 *** Multiple NONBONDED declaration: OSI and HT OVERWRITING!       ***
 *** force_fields_all.F line   3069                                ***


 *** 18:14:42 WARNING in force_fields_all:force_field_pack_nonbond ***
 *** Multiple NONBONDED declaration: HSI and HSI OVERWRITING!      ***
 *** force_fields_all.F line   3069                                ***


 *** 18:14:42 WARNING in force_fields_all:force_field_pack_nonbond ***
 *** Multiple NONBONDED declaration: HSI and OT OVERWRITING!       ***
 *** force_fields_all.F line   3069                                ***


 *** 18:14:42 WARNING in force_fields_all:force_field_pack_nonbond ***
 *** Multiple NONBONDED declaration: HSI and HT OVERWRITING!       ***
 *** force_fields_all.F line   3069                                ***


 SPLINE_INFO| Generating 120 splines for the NONBONDED interactions due to 15 different atomic kinds
 ...12
 ...24
 ...36
 ...48
 ...60
 ...72
 ...84
 ...96
 ...108
 ...120

 SPLINE_INFO| Number of unique splines computed:            56

 SPLINE_INFO| Done
 
 MD| Molecular Dynamics Protocol 
 MD| Ensemble Type                                                           NVT
 MD| Number of Time Steps                                                      1
 MD| Time Step [fs]                                                         0.50
 MD| Temperature [K]                                                      300.00
 MD| Temperature tolerance [K]                                              0.00
 MD| Print MD information every                                        1 step(s)
 MD| File type     Print frequency[steps]                             File names
 MD| Coordinates            1                                      nvt-pos-1.xyz
 MD| Velocities             1                                      nvt-vel-1.xyz
 MD| Energies               1                                         nvt-1.ener
 MD| Dump                   1                                      nvt-1.restart
 
 ROT| Rotational Analysis Info 
 ROT| Principal axes and moments of inertia in atomic units:
 ROT|                                  1              2              3
 ROT| EIGENVALUES               ************   ************   ************
 ROT|      X                        0.722281       0.347750       0.597812
 ROT|      Y                       -0.615528      -0.070887       0.784921
 ROT|      Z                       -0.315333       0.934904      -0.162850
 ROT| Numer of Rotovibrational vectors:     6

 Calculation of degrees of freedom
                                                      Number of atoms:      5156
                                 Number of Intramolecular constraints:         0
                                 Number of Intermolecular constraints:         0
                                  Invariants(translation + rotations):         3
                                                   Degrees of freedom:     15465


 Restraints Information
                                  Number of Intramolecular restraints:         0
                                  Number of Intermolecular restraints:         0

 THERMOSTAT| Thermostat Info for PARTICLES
 THERMOSTAT| Type of thermostat            Canonical Sampling/Velocity Rescaling
 THERMOSTAT| CSVR time constant [  fs]                                    200.00
 THERMOSTAT| Initial Kinetic Energy                                   -11.728885
 THERMOSTAT| End of Thermostat Info for PARTICLES

 ************************** Velocities initialization **************************
 Initial Temperature                                                    297.95 K
 COM velocity:            0.000000000000      0.000000000000      0.000000000000
 *******************************************************************************


 ENERGY| Total FORCE_EVAL ( FIST ) energy (a.u.):           -463.760801319456050


 ENERGY| Total FORCE_EVAL ( FIST ) energy ( eV ):         -12619.573182327858376

 
 MD_ENERGIES| Initialization proceeding
 

 ******************************** GO CP2K GO! **********************************
 INITIAL POTENTIAL ENERGY[hartree]     =                     -0.463760801319E+03
 INITIAL KINETIC ENERGY[hartree]       =                      0.729599295190E+01
 INITIAL TEMPERATURE[K]                =                                 297.949
 INITIAL PRESSURE[bar]                 =                      0.106115135795E+05
 INITIAL VOLUME[bohr^3]                =                      0.356292946601E+06
 INITIAL CELL LNTHS[bohr]   =      0.5488197E+02   0.1074535E+03   0.6041671E+02
 INITIAL CELL ANGLS[deg]    =      0.9000000E+02   0.9000000E+02   0.9000000E+02
 ******************************** GO CP2K GO! **********************************

 ENERGY| Total FORCE_EVAL ( FIST ) energy (a.u.):           -463.768905182333242


 ENERGY| Total FORCE_EVAL ( FIST ) energy ( eV ):         -12619.793699651330826


 *******************************************************************************
 ENSEMBLE TYPE                =                                              NVT
 STEP NUMBER                  =                                          1040001
 TIME [fs]                    =                                    520000.500005
 CONSERVED QUANTITY [hartree] =                              -0.468193790921E+03

                                              INSTANTANEOUS             AVERAGES
 CPU TIME [s]                 =                        1.96                 1.60
 ENERGY DRIFT PER ATOM [K]    =         -0.594558589727E-02  -0.286739528622E+05
 POTENTIAL ENERGY[hartree]    =         -0.463768905182E+03  -0.464212811810E+03
 KINETIC ENERGY [hartree]     =          0.731131046567E+01   0.699011166440E+01
 TEMPERATURE [K]              =                     298.574              285.457
 PRESSURE [bar]               =          0.103776678917E+05   0.105951589196E+05
 *******************************************************************************


 -------------------------------------------------------------------------------
 -                                                                             -
 -                           R E F E R E N C E S                               -
 -                                                                             -
 -------------------------------------------------------------------------------
 
 CP2K version 2.3 (Development Version), the CP2K developers group (2012).
 CP2K is freely available from http://www.cp2k.org/ .

 Bussi, G; Donadio, D; Parrinello, M. 
 JOURNAL OF CHEMICAL PHYSICS, 126 (1), 014101 (2007). 
 Canonical sampling through velocity rescaling.
 http://dx.doi.org/10.1063/1.2408420


 Frigo, M; Johnson, SG. 
 PROCEEDINGS OF THE IEEE, 93 (2), 216-231 (2005). 
 The design and implementation of FFTW3.
 http://dx.doi.org/10.1109/JPROC.2004.840301


 ESSMANN, U; PERERA, L; BERKOWITZ, ML; DARDEN, T; LEE, H; PEDERSEN, LG. 
 JOURNAL OF CHEMICAL PHYSICS, 103 (19), 8577-8593 (1995). 
 A SMOOTH PARTICLE MESH EWALD METHOD.
 http://dx.doi.org/10.1063/1.470117


 -------------------------------------------------------------------------------
 -                                                                             -
 -                                T I M I N G                                  -
 -                                                                             -
 -------------------------------------------------------------------------------
 SUBROUTINE                       CALLS  ASD         SELF TIME        TOTAL TIME
                                              AVERAGE  MAXIMUM  AVERAGE  MAXIMUM
 CP2K                                 1  1.0    0.021    0.021   29.076   29.076
 fist_init                            1  3.0    0.001    0.001   25.985   25.985
 fist_create_force_env                1  2.0    0.000    0.000   25.985   25.985
 topology_control                     1  4.0    0.608    0.608   21.683   21.683
 topology_coordinate_pack             1  5.0    0.000    0.000   19.996   19.996
 topology_coordinate_pack_89          1  6.0   19.995   19.995   19.995   19.995
 force_field_control                  1  4.0    0.000    0.000    4.297    4.297
 force_field_pack                     1  5.0    0.000    0.000    4.098    4.098
 qs_mol_dyn_low                       1  2.0    0.004    0.004    3.067    3.067
 fist_force_control                   2  3.5    0.001    0.001    1.947    1.947
 force_field_pack_bend                1  6.0    1.857    1.857    1.857    1.857
 md_output                            1  3.0    0.000    0.000    1.018    1.018
 force_nonbond                        2  4.5    0.983    0.983    0.983    0.983
 force_field_pack_ub                  1  6.0    0.688    0.688    0.688    0.688
 velocity_verlet                      1  3.0    0.001    0.001    0.673    0.673
 list_control                         2  4.5    0.001    0.001    0.629    0.629
 build_fist_neighbor_lists            1  5.0    0.000    0.000    0.628    0.628
 md_write_output                      2  3.5    0.091    0.091    0.622    0.622
 -------------------------------------------------------------------------------

  **** **** ******  **  PROGRAM ENDED AT                 2012-06-04 18:14:45.185
 ***** ** ***  *** **   PROGRAM RAN ON                                    node20
 **    ****   ******    PROGRAM RAN BY                                          
 ***** **    ** ** **   PROGRAM PROCESS ID                                  9195
  **** **  *******  **  PROGRAM STOPPED IN     /home/lam81/test_cp2k_silica/orig
