 81
 energy=30.855129585407724 cutoff=4.00000000 nneightol=1.20000000 pbc="T T T" Lattice="9.31284498       0.00000000       0.00000000       0.00000000       9.31284498       0.00000000       0.00000000       0.00000000       9.31284498" Properties=species:S:1:pos:R:3:Z:I:1:map_shift:I:3:n_neighb:I:1:force:R:3
 O               8.79132032      9.19484386      0.46916611       8      -1      -1       0      41      0.91547553     -1.59992365     -0.27451162
 H               1.53065811      0.19062150      1.71843086       1       0       0       0      41     -0.08390513      0.85981844     -0.20421341
 H               1.11118361      8.44958838      0.84218004       1       0      -1       0      37      0.24447191      1.26535835     -2.09579978
 O               1.12863120      6.22615906      4.37109437       8       0      -1       0      39      0.17643595     -0.56272457      0.93109759
 H               7.87328184      8.01527367      8.63013413       1      -1      -1      -1      35      1.18395112      0.69549620      2.15945766
 H               0.87621183      0.36287354      3.82263893       1       0       0       0      43      0.80688824     -0.53309108     -0.39560081
 O               0.91241073      7.79382386      5.59434387       8       0      -1      -1      40      0.42542374      0.81705981      1.15041797
 H               8.35980948      8.08296611      7.86530761       1      -1      -1      -1      40      1.67453770      1.15669195     -1.22343942
 H               7.11913602      8.29128726      8.22123757       1      -1      -1      -1      37     -3.00421454      1.57087982     -2.11274170
 O               7.30360841      1.45418926      0.62710502       8      -1       0       0      31     -4.13175264     -4.67734799     -0.05970147
 H               2.29037175      6.58193316      0.01792591       1       0      -1       0      36     -0.56609413      1.63458255     -0.65584770
 H               2.99802251      6.60547707      4.27229610       1       0      -1       0      49     -1.16041657     -0.39985783      1.08098104
 O               2.31728736      4.26743463      3.98695266       8       0       0       0      36      0.38447171      0.76499629     -0.78306999
 H               1.03067760      0.07899747      6.68733535       1       0       0      -1      49     -0.86588925      0.13760965      4.10343015
 H               0.66552826      3.90685689      3.22922042       1       0       0       0      37      1.68280637     -0.29825905     -0.68238937
 O               8.82976943      3.55624565      5.15721261       8      -1       0      -1      33      2.29862969      1.58382295     -1.74485210
 H               8.30105943      2.73283615      5.57704246       1      -1       0      -1      37     -0.94488408     -1.80397018     -0.13594219
 H               0.45187314      4.22636012      5.00767437       1       0       0      -1      31      1.32496129      0.82992766     -0.76184598
 O               1.51497878      0.53954722      0.58441120       8       0       0       0      33     -0.19570767     -0.41940367      0.08515004
 H               0.23820111      5.77558623      3.23130932       1       0      -1       0      38      0.52020628      0.03558704      2.03799512
 H               0.60729479      8.00864832      9.00094108       1       0      -1      -1      33      0.07171373      0.85739457     -0.65478326
 O               0.79506994      8.53057621      3.45406008       8       0      -1       0      44      2.56512698      2.19269590     -1.67947463
 H               1.51125204      1.82412744      0.38181515       1       0       0       0      31     -0.87552662     -2.32251274      1.23072714
 H               9.25687827      8.16233856      3.90846999       1      -1      -1       0      47     -1.65610170     -1.12928031      1.33557642
 O               8.61792023      5.33862463      4.01269038       8      -1      -1       0      36      2.29329777      1.54710229     -0.49946854
 H               0.69319196      8.31290263      6.66189089       1       0      -1      -1      45      1.65836135     -0.76889682     -0.82783746
 H               8.90164106      6.45408091      4.03298881       1      -1      -1       0      40      1.63763135     -0.40569706      1.37646644
 O               1.72735076      7.86104702      9.16643667       8       0      -1      -1      37     -0.38336114     -0.28477799      0.14363575
 H               4.10831365      5.88617482      8.33095797       1       0      -1      -1      28      0.17029091      1.45502201     -1.46674514
 H               2.21415011      1.22053163      3.59688055       1       0       0       0      44      0.87201538      0.20087534      0.56704241
 O               3.27494344      0.45506059      5.28016610       8       0       0      -1      43      6.63797654      4.19296320      1.78673629
 H               4.14046463      9.02946370      5.90421769       1       0      -1      -1      47     -1.56032652     -0.24399656     -0.81124005
 H               1.93167395      2.45313502      5.38897948       1       0       0      -1      44      1.85586639      0.18576533     -0.90540877
 O               2.62199868      9.08089270      5.11414393       8       0      -1      -1      44     -4.90327886     -6.81840338     -0.40484350
 H               2.72713219      0.66481845      0.29905087       1       0       0       0      35     -2.05355523     -1.05925355      0.24197947
 H               0.81557695      3.10040090      3.68768647       1       0       0       0      39      1.38407425     -1.45717880      0.69364441
 O               2.98396049      3.64819066      0.58337329       8       0       0       0      34     -0.59420699     -2.03441230     -0.30002689
 H               3.26518089      2.85983049      8.94363615       1       0       0      -1      35     -0.51568885      1.46456416      0.39553532
 H               2.28952628      2.75611126      1.11506340       1       0       0       0      31      0.41456083      0.89409342      0.91572103
 O               1.35435511      2.70385256      2.77037244       8       0       0       0      41     -0.97160723      1.03925268      1.30475498
 H               3.27580803      5.41670110      3.15311681       1       0      -1       0      43     -1.58668882     -1.54119605      1.66482687
 H               3.00715575      4.27551046      2.69281414       1       0       0       0      38     -0.83773421     -0.63942389      2.16537660
 O               3.11242635      2.77364868      5.20876048       8       0       0      -1      39     -0.74216295      0.20936233      0.92639654
 H               2.88353425      3.65685888      6.14942616       1       0       0      -1      43      0.02392626     -0.72806732     -2.62532020
 H               4.13705209      2.83405053      5.70520823       1       0       0      -1      39     -0.91455293      0.24405111     -0.46900331
 O               3.15283610      7.25317240      8.06614344       8       0      -1      -1      43     -2.54317965     -0.74618816     -2.75059268
 H               4.65312753      5.40723663      7.35746269       1       0      -1      -1      30      0.86068426      2.35281298     -0.07007249
 H               2.14924143      5.54402832      6.74978638       1       0      -1      -1      43      0.92441342      1.01420235     -0.39284406
 O               1.99889425      5.41960671      4.16148343       8       0      -1       0      39      1.41988398      0.96332158      1.41132183
 H               1.79382033      7.82359762      4.78835828       1       0      -1      -1      44     -0.20412495     -0.04897946      0.82034641
 H               2.38745039      6.09642139      5.20323826       1       0      -1      -1      46     -2.20254133     -0.37631672     -1.66590837
 O               3.06833643      6.29515007      7.09980023       8       0      -1      -1      40     -1.35960150      1.77533348      0.16564322
 H               5.82500595      8.12555015      6.64266512       1      -1      -1      -1      41     -0.98861135     -1.13288772      0.67922122
 H               3.73045761      1.89249184      4.59103862       1       0       0       0      41     -1.95228575      0.28788823      0.12889670
 O               6.31863499      1.00093907      7.55209561       8      -1       0      -1      37      3.73280967    -13.53973866      2.17062932
 H               4.76864432      1.00899570      6.49191057       1      -1       0      -1      41      1.07702509     -0.10631298      0.13879596
 H               6.05011082      1.50137802      5.33290364       1      -1       0      -1      34     -0.21928774     -0.86697955      1.07044580
 O               5.50167650      8.39213985      3.71527595       8      -1      -1       0      33     -0.10242935     -2.57088385     -0.62032762
 H               5.94853086      6.95073243      4.08843497       1      -1      -1       0      33      0.10602499      1.03739880      1.55674768
 H               8.98467332      7.96596219      0.30283612       1      -1      -1       0      36      0.54567805      2.65459530      0.42961568
 O               6.26088468      0.69505232      6.18141947       8      -1       0      -1      39     -2.89403815      2.48120426      3.56090237
 H               0.22177077      1.32747229      1.39589177       1       0       0       0      34     -0.13949592     -0.64861084     -0.39903592
 H               5.44612088      0.60588895      5.28405241       1      -1       0      -1      40      0.52687446     -0.79652174      0.79696889
 O               8.12885869      1.99927906      0.67745494       8      -1       0       0      32      6.50342590      1.78574100      0.47956441
 H               5.98138894      2.40727206      1.25079385       1      -1       0       0      23     -0.08112422     -0.65703188      0.35750380
 H               6.53022945      0.44364877      8.68189474       1      -1       0      -1      35     -0.30835243      0.24390499     -2.13872359
 O               6.08617360      2.53360966      2.48129341       8      -1       0       0      32     -3.51792839     -0.33017002      2.07615497
 H               7.06011439      2.48768005      2.07135379       1      -1       0       0      30      2.96408556     -0.66796321     -0.24157642
 H               5.51802945      2.61159207      3.62528493       1      -1       0       0      36     -0.39667935     -1.00552961     -0.19815407
 O               6.04921640      1.75665892      7.22327840       8      -1       0      -1      35     -4.48185090      7.43424227     -8.30503046
 H               7.39770456      7.91304098      6.86548907       1      -1      -1      -1      42     -0.07385198      0.47716655     -0.16711100
 H               6.15060783      8.12098032      5.45373277       1      -1      -1      -1      41     -0.91810319      0.38711848      0.47312541
 O               5.53154623      6.29255678      7.91100315       8      -1      -1      -1      32     -2.23440537     -1.16170189     -0.38102826
 H               1.36946727      9.22091297      5.94452551       1       0      -1      -1      47      3.33630989     -2.84285006     -4.74847653
 H               5.29032231      4.89344735      6.60395397       1      -1      -1      -1      39     -0.31772732     -0.02776064     -1.05772657
 O               5.70189398      7.03697936      3.01318608       8      -1      -1       0      32      0.43125583      2.48521575      2.19805770
 H               5.08331325      8.58768575      2.51362454       1      -1      -1       0      38     -0.01355458      1.25856025      2.78964687
 H               6.70429697      6.39903281      3.24314128       1      -1      -1       0      30     -1.42651223      0.76577682      1.03563155
 O               6.21159190      6.94856085      7.31643329       8      -1      -1      -1      37      1.29918706      5.52163341     -3.54580161
 H               0.03406310      7.95601254      7.39287661       1       0      -1      -1      44     -0.16706523     -0.27436440     -0.81106917
 H               6.66655172      7.76791179      6.22778640       1      -1      -1      -1      42      0.13964748     -1.23262341      0.63141711
