1
Lattice="2.849544 0.0 0.0 -1.378096 2.16173 0.0 -0.037303 0.09403 2.364586" Properties=species:S:1:pos:R:3:dft_force:R:3:gap_forces:R:3:forces:R:3 config_type=sh dft_energy=-162.776422 dft_virial="-0.0441615 -0.114454 0.0918817 -0.114454 0.465113 -0.317976 0.0918817 -0.317976 1.52685" cutoff=-1.0 nneightol=1.2 gap_energy=-162.7766365179116 gap_virial="_JSON [[0.0012023577654181987, -0.13643849417547066, 0.14784461486735367], [-0.13643849417547066, 0.3950489933504974, -0.35997679463164184], [0.14784461486735367, -0.35997679463164184, 1.4986082501919245]]" energy=-35372.52914863149 stress="0.00589268330432441 -0.00621471869072419 -0.003940729858184482 -0.00621471869072419 0.00507128748485201 0.0027937248326378784 -0.003940729858184482 0.0027937248326378784 0.006252550076520158" free_energy=-35372.52914863149 pbc="T T T"
Si       0.00000000       0.00000000       0.00000000       0.00000000       0.00000000       0.00000000      -0.00000000       0.00000000      -0.00000000      -0.00000000       0.00000000      -0.00000000
2
Lattice="2.69079009 0.0438472 0.01196921 -1.33063902 2.21191666 0.11566157 0.0835569 -0.06565412 4.43743455" Properties=species:S:1:pos:R:3:dft_force:R:3:gap_forces:R:3:forces:R:3 config_type=hcp Minim_Constant_Volume=T dft_virial="1.22484521 -0.31069635 -0.12898387 -0.31069635 1.43497702 -0.30510587 -0.12898387 -0.30510587 1.683019" dft_energy=-325.15838281 cutoff=-1.0 nneightol=1.2 gap_energy=-325.15837751877757 gap_virial="_JSON [[1.2065975617079352, -0.24334366712058636, -0.2014639404688108], [-0.24334366712058636, 1.5221298908551963, -0.1011036519978101], [-0.2014639404688108, -0.1011036519978101, 1.6253783130843267]]" energy=-35372.52914863149 stress="0.00589268330432441 -0.00621471869072419 -0.003940729858184482 -0.00621471869072419 0.00507128748485201 0.0027937248326378784 -0.003940729858184482 0.0027937248326378784 0.006252550076520158" free_energy=-35372.52914863149 pbc="T T T"
Si       0.04967180      -0.01382625       0.06476935      -0.02073000       0.02196000      -0.34777000       0.06352951      -0.07193219      -0.22263790       0.06806360       0.00208996      -0.29147951
Si       0.15230223       1.52521843       2.30292011       0.02073000      -0.02196000       0.34777000      -0.06352951       0.07193219       0.22263790      -0.06806360      -0.00208996       0.29147951
2
Lattice="2.30398 -2.448687 -1.515751 -2.085598 2.509758 -1.226641 2.027043 2.390132 1.113983" Properties=species:S:1:pos:R:3:dft_force:R:3:gap_forces:R:3:forces:R:3 config_type=bt dft_energy=-325.370056 dft_virial="4.33172 0.498105 2.0294 0.498105 0.619934 0.507553 2.0294 0.507553 1.07616" cutoff=-1.0 nneightol=1.2 gap_energy=-325.3699084776268 gap_virial="_JSON [[4.204639731479066, 0.2244597814929042, 1.9638236361395494], [0.2244597814929042, 0.7529780726397898, 0.4676387705923012], [1.9638236361395494, 0.4676387705923012, 0.9412061415787818]]" energy=-35372.52914863149 stress="0.00589268330432441 -0.00621471869072419 -0.003940729858184482 -0.00621471869072419 0.00507128748485201 0.0027937248326378784 -0.003940729858184482 0.0027937248326378784 0.006252550076520158" free_energy=-35372.52914863149 pbc="T T T"
Si       1.01294396      -0.00976394       0.76845496      -1.28241000      -0.01221000      -0.52449000      -1.29143853      -0.31826124      -0.16823263      -1.24749465      -0.31245449      -0.26625216
Si      -1.01294396       0.00976394      -0.76845496       1.28241000       0.01221000       0.52449000       1.29143853       0.31826124       0.16823263       1.24749465       0.31245449       0.26625216
8
Lattice="-3.27109786 3.46412998 3.42775002 3.32534728 -3.3846195 3.19714868 3.24695946 3.28892917 -3.46176414" Properties=species:S:1:pos:R:3:dft_force:R:3:gap_forces:R:3:forces:R:3 config_type=bc8 Minim_Constant_Volume=T dft_virial="5.6160596 0.70413404 1.26570677 0.70413404 -0.34478653 -3.27343751 1.26570677 -3.27343751 4.73088686" dft_energy=-1302.46604925 cutoff=-1.0 nneightol=1.2 gap_energy=-1302.4671747423033 gap_virial="_JSON [[5.625374848442755, 0.49762559335303097, 0.6461567680267706], [0.49762559335303097, -0.18993001323307634, -3.3763593117041117], [0.6461567680267706, -3.3763593117041117, 4.820664145166441]]" energy=-35372.52914863149 stress="0.00589268330432441 -0.00621471869072419 -0.003940729858184482 -0.00621471869072419 0.00507128748485201 0.0027937248326378784 -0.003940729858184482 0.0027937248326378784 0.006252550076520158" free_energy=-35372.52914863149 pbc="T T T"
Si       2.70389833       0.65976664      -0.60882381       0.48610000      -1.28579000      -1.77841000       0.70216129      -1.53960255      -1.46775158       0.48826408      -1.35688668      -1.72101877
Si       4.15370778      -0.69700186       0.65017583      -1.00899000      -1.38454000      -0.82651000      -0.91295919      -1.56921248      -1.02843524      -1.02065480      -1.50036457      -0.92903795
Si       0.83151025       0.75033520       0.62664343      -0.91429000      -1.40236000       0.84538000      -1.10890298      -1.24973833       0.76841028      -0.95053542      -1.33162455       0.76065883
Si       0.72784214      -0.71992959       2.60765483      -1.05770000       0.98380000      -0.37457000      -1.12650275       0.97144426      -0.38609953      -1.02492804       0.93178260      -0.37700684
Si      -0.64939212       2.46289931       0.50109589      -0.14611000       0.94724000       2.12887000      -0.16406423       0.89528300       2.16118329      -0.02719578       0.93173463       2.17065038
Si       0.61736192       3.90012164      -0.64216437      -0.09821000       1.77630000      -0.00442000      -0.20046542       1.98779074       0.04103470      -0.11949179       1.85010387       0.06186955
Si      -0.76439345       0.53235893       4.14797421       1.72165000       1.89703000      -2.00524000       1.58054777       1.97589836      -1.90811283       1.67163298       1.96380966      -1.99095152
Si       2.63164935       2.66097771       2.51175259       1.01754000      -1.53167000       2.01490000       1.23018549      -1.47186300       1.81977091       0.98290878      -1.48855496       2.02483631
16
Lattice="4.58725 -4.587228 -2.490326 -4.587258 4.587229 -2.490344 4.587262 4.587232 2.490342" Properties=species:S:1:pos:R:3:frac_pos:R:3:dft_force:R:3:gap_forces:R:3:forces:R:3 config_type=bt task=SinglePoint cut_off_energy="250 eV" spin_polarized=F opt_strategy_bias=3 xc_functional=PW91 elec_energy_tol=1e-07 max_scf_cycles=250 fix_occupancy=F calculate_stress=T finite_basis_corr=automatic smearing_width=0.05 fine_grid_scale=4 mixing_scheme=pulay mix_history_length=20 num_dump_cycles=0 popn_calculate=F mix_charge_amp=0.05 kpoints_mp_grid="16 16 11" castep_file_name=md_sample_bt.xyz-00326/eval.castep castep_run_time=425.9 dft_energy=-2603.256705 dft_virial="31.92904534 0.12297942 0.10585519 0.12297942 31.33176048 0.16047244 0.10585519 0.16047244 31.67859906" in_file=md_sample_bt.xyz@326 cutoff_factor=1.2 cutoff=-1.0 nneightol=1.2 gap_energy=-2603.256103938803 gap_virial="_JSON [[32.029674231977964, -0.020227458964570025, 0.02528672336397568], [-0.020227458964570025, 31.353335244148678, 0.16815849829066673], [0.02528672336397568, 0.16815849829066673, 31.744904308061997]]" energy=-35372.52914863149 stress="0.00589268330432441 -0.00621471869072419 -0.003940729858184482 -0.00621471869072419 0.00507128748485201 0.0027937248326378784 -0.003940729858184482 0.0027937248326378784 0.006252550076520158" free_energy=-35372.52914863149 pbc="T T T"
Si       1.13915477       0.02513834       0.91676900      -0.05990000      -0.18132500       0.12690500       0.08834000      -0.12190000       0.24645000       0.08267185      -0.12450303       0.28047942       0.10250957      -0.11138143       0.25535809
Si      -1.14773294       0.00727503      -0.93067008       0.06175600       0.18764900      -0.12430700      -0.02065000      -0.04400000      -0.13793000      -0.04075804      -0.01550391      -0.15893012      -0.01520967      -0.03892646      -0.14362835
Si       3.45110724       2.30707526       2.14911481      -0.05532800      -0.18002300       0.62762900      -0.11938000       0.08245000       0.19997000      -0.12192643       0.01641568       0.17183368      -0.10796751       0.03356552       0.19841173
Si       1.13176017       2.36309387       0.31855017       0.05940200       0.19361600       0.38093200       0.07210000      -0.28088000      -0.04215000       0.08073040      -0.22390843      -0.06698265       0.06446569      -0.24988632      -0.06449672
Si      -1.16164871       2.29281663      -0.32795474      -0.06077200       0.31575800       0.12329600       0.09391000       0.25119000      -0.03202000       0.06530948       0.27304825      -0.05739953       0.06200689       0.23566086      -0.02970822
Si      -3.44431157       2.28226997      -2.18611471       0.06349700       0.68768200      -0.12665800       0.13520000       0.27677000       0.16008000       0.13128358       0.21821185       0.23076992       0.10271831       0.20673448       0.18095784
Si       1.14948280       4.63059389       0.98898026      -0.07327300       0.30616300       0.63001700      -0.02161000      -0.14033000      -0.13061000      -0.03407084      -0.17510974      -0.15153299      -0.02846548      -0.13198385      -0.15052138
Si      -1.14508870       4.63397407      -0.95180406       0.06628700       0.69619400       0.38028300      -0.06610000      -0.42990000      -0.11381000      -0.07374592      -0.43322552      -0.12547987      -0.06325397      -0.39862864      -0.11561875
Si       3.46883560      -2.31412777      -0.31374079       0.44108800      -0.18924300       0.12585900      -0.20317000       0.16951000       0.09390000      -0.16762801       0.10704488       0.11182316      -0.17350246       0.15197481       0.09491276
Si       1.16502555      -2.30238968      -2.13876440       0.55639900       0.17845700      -0.12397100      -0.25266000      -0.01816000      -0.25009000      -0.24368170       0.00504401      -0.31657023      -0.21177997       0.01303881      -0.27089760
Si       5.74281939      -0.04955354       0.94427284       0.43636800      -0.19498700       0.62055200      -0.25616000       0.14828000       0.04342000      -0.20531329       0.13652487       0.07678544      -0.21793633       0.14060102       0.07064622
Si       3.43098149      -0.03860444      -0.97668347       0.57006500       0.19188800       0.36976100       0.06028000       0.21090000       0.20242000       0.08139550       0.23938832       0.20794834       0.06006122       0.19723332       0.20385279
Si       1.13516912      -0.01748573      -1.50439445       0.42577800       0.30014100       0.12182500       0.00901000       0.01478000      -0.35405000       0.04266461       0.01381473      -0.36464669       0.03435395       0.03233098      -0.35409770
Si      -1.16287493       0.00738563      -3.44836890       0.56560000       0.69315500      -0.12594500       0.25013000      -0.20115000       0.20507000       0.23141918      -0.21647515       0.22377005       0.22100714      -0.19398612       0.21718025
Si       3.43626348       2.27922667      -0.32512517       0.43982300       0.31371000       0.62297600       0.13291000      -0.03383000      -0.05553000       0.13640642       0.04737307      -0.04569588       0.11345539       0.00897707      -0.05624067
Si       1.16007324       2.24227132      -2.17537831       0.56321000       0.68116800       0.37084900       0.09786000       0.11627000      -0.03512000       0.03524322       0.13186011      -0.01617204       0.05753722       0.10467594      -0.03611028
16
Lattice="4.609243 -4.615566 -2.508791 -4.609433 4.615606 -2.509211 4.609677 4.61581 2.509139" Properties=species:S:1:pos:R:3:frac_pos:R:3:dft_force:R:3:gap_forces:R:3:forces:R:3 config_type=bt task=SinglePoint cut_off_energy="250 eV" spin_polarized=F opt_strategy_bias=3 xc_functional=PW91 elec_energy_tol=1e-07 max_scf_cycles=250 fix_occupancy=F calculate_stress=T finite_basis_corr=automatic smearing_width=0.05 fine_grid_scale=4 mixing_scheme=pulay mix_history_length=20 num_dump_cycles=0 popn_calculate=F mix_charge_amp=0.05 kpoints_mp_grid="16 16 11" castep_file_name=md_sample_bt.xyz-00324/eval.castep castep_run_time=473.06 dft_energy=-2603.672439 dft_virial="27.95964048 0.14699151 -0.00634765 0.14699151 27.28438925 0.1372588 -0.00634765 0.1372588 27.24718959" in_file=md_sample_bt.xyz@324 cutoff_factor=1.2 cutoff=-1.0 nneightol=1.2 gap_energy=-2603.670778051262 gap_virial="_JSON [[28.320590533626934, 0.07950475534004643, -0.09937522186598402], [0.07950475534004643, 27.123202958940798, 0.13888346399333498], [-0.09937522186598402, 0.13888346399333498, 27.42941822297125]]" energy=-35372.52914863149 stress="0.00589268330432441 -0.00621471869072419 -0.003940729858184482 -0.00621471869072419 0.00507128748485201 0.0027937248326378784 -0.003940729858184482 0.0027937248326378784 0.006252550076520158" free_energy=-35372.52914863149 pbc="T T T"
Si       1.17992550      -0.04687153       0.89920563      -0.05120100      -0.18426700       0.12290600      -0.04558000       0.32114000       0.14204000      -0.06056985       0.26475117       0.11409386      -0.05801832       0.28731826       0.13121489
Si      -1.17831363       0.07300252      -1.07720183       0.08684800       0.22256900      -0.11990000       0.12702000      -0.64040000       0.15962000       0.05172681      -0.64907203       0.22593301       0.10562422      -0.60518873       0.17656625
Si       3.42111639       2.29920758       2.24399360      -0.07608500      -0.19811100       0.62013700      -0.12428000       0.62825000      -0.21117000      -0.16121425       0.55064191      -0.22887923      -0.13652562       0.52424005      -0.22046036
Si       1.20843701       2.25568440       0.31852312       0.06760400       0.18087500       0.37542000      -0.18457000       0.06009000       0.27265000      -0.11673574       0.10106337       0.35400153      -0.12898240       0.09469828       0.28522298
Si      -1.11283972       2.31266418      -0.29741681      -0.06146000       0.30978200       0.12980600      -0.03000000      -0.04435000       0.39395000      -0.08803753      -0.01194654       0.43000805      -0.06189608      -0.04871965       0.37893652
Si      -3.50040548       2.30634355      -2.21874178       0.06243100       0.69197100      -0.12985100       0.03796000      -0.31641000       0.06292000       0.06528335      -0.21503992      -0.02582251       0.03071409      -0.20702313       0.03095673
Si       1.13379511       4.56363815       0.87460982      -0.05132400       0.32006400       0.61732600       0.08849000       0.21183000       0.14124000       0.10146279       0.15575540       0.19281604       0.12222185       0.18675444       0.20405745
Si      -1.17610886       4.62957200      -0.81118784       0.03405400       0.66314400       0.37391900       0.06090000      -0.10983000      -0.35249000       0.02284369      -0.08353809      -0.33636926       0.03382812      -0.09614003      -0.35209842
Si       3.41451230      -2.30681558      -0.22886218       0.41602600      -0.20426000       0.12049100       0.29531000      -0.27556000      -0.55945000       0.21334873      -0.23097862      -0.60875789       0.25039087      -0.24643634      -0.61110263
Si       1.18403491      -2.30711270      -2.20792844       0.56846500       0.19008900      -0.12147400       0.19330000       0.08172000      -0.00157000       0.17260983       0.12789619       0.05222802       0.14443129       0.10916846      -0.00408379
Si       5.72063374       0.03059849       0.92311158       0.43661100      -0.18061800       0.62382700      -0.04618000      -0.19547000      -0.04554000      -0.02307731      -0.13531089      -0.11481540      -0.00717921      -0.16171898      -0.04914311
Si       3.51115460      -0.00254506      -0.85394392       0.55107000       0.16991600       0.38058100      -0.44691000       0.09868000       0.08682000      -0.36586638       0.01021351       0.02240470      -0.37644902       0.03794867       0.09196423
Si       1.15438315       0.00862399      -1.60937274       0.44595400       0.32165800       0.12615500       0.19360000      -0.29375000       0.21262000       0.23341029      -0.27579708       0.19532176       0.17322479      -0.22769424       0.25168834
Si      -1.16258249       0.00654772      -3.61228027       0.59376200       0.72056500      -0.12538400       0.11847000       0.08426000       0.33105000       0.12385458       0.12714512       0.33534632       0.10752522       0.04608790       0.34192112
Si       3.52131033       2.33751756      -0.26759572       0.43531000       0.30655300       0.63516300      -0.36093000       0.08886000      -0.15208000      -0.29150300      -0.00579444      -0.11064509      -0.32982437       0.05923949      -0.18127200
Si       1.11894122       2.30340935      -2.11040435       0.54194800       0.67008500       0.37089000       0.12340000       0.30094000      -0.48062000       0.12246398       0.27001095      -0.49686392       0.13091457       0.24746552      -0.47436821
16
Lattice="5.10744 5.107493 0.000378 0.00057 5.107301 5.107499 5.107311 0.000507 5.107561" Properties=species:S:1:pos:R:3:frac_pos:R:3:dft_force:R:3:gap_forces:R:3:forces:R:3 config_type=dia task=SinglePoint cut_off_energy="250 eV" spin_polarized=F opt_strategy_bias=3 xc_functional=PW91 elec_energy_tol=1e-07 max_scf_cycles=250 fix_occupancy=F calculate_stress=T finite_basis_corr=automatic smearing_width="0.05 eV" fine_grid_scale=4 mixing_scheme=pulay mix_history_length=20 num_dump_cycles=0 popn_calculate=F nextra_bands=200 kpoints_mp_grid="6 6 6" castep_file_name=md_sample_dia.xyz-00362/eval.castep castep_run_time=178.27 dft_energy=-2606.519553 dft_virial="38.88144641 -1.15446961 0.71313746 -1.15446961 39.82769075 0.90127852 0.71313746 0.90127852 39.56265666" in_file=md_sample_dia.xyz@362 cutoff_factor=1.2 cutoff=-1.0 nneightol=1.2 gap_energy=-2606.522678147509 gap_virial="_JSON [[39.204149042220955, -0.4457158792350836, 0.9338135959485367], [-0.4457158792350836, 39.56840829220767, 0.6380061380154018], [0.9338135959485367, 0.6380061380154018, 39.76688299072392]]" energy=-35372.52914863149 stress="0.00589268330432441 -0.00621471869072419 -0.003940729858184482 -0.00621471869072419 0.00507128748485201 0.0027937248326378784 -0.003940729858184482 0.0027937248326378784 0.006252550076520158" free_energy=-35372.52914863149 pbc="T T T"
Si       0.01143625       0.18795815      -0.02708303       0.02217200       0.01463100      -0.01993500       0.13485000      -0.27022000       0.34216000       0.24076131       0.14567676       0.24284326       0.07263657      -0.34854037       0.35483128
Si       1.28860115       1.20166260       1.53768322       0.09324800       0.14201600       0.15903900       0.08289000      -0.22663000      -0.35923000       0.02406925      -0.37439463      -0.19891674       0.18935861      -0.27938388      -0.54935353
Si       2.63717716      -0.21231721       2.66113383      -0.02314400      -0.01848000       0.53950000      -0.21583000      -0.22225000      -0.55961000      -0.32286264      -0.04365740      -0.56072096      -0.22729665      -0.19975162      -0.56950504
Si       3.73659678       1.34192656       3.76806667       0.12827300       0.13440900       0.60332600       0.63480000       0.28328000      -0.24075000       0.45794362       0.15484968      -0.30008640       0.71350369       0.21263968      -0.23228189
Si       0.01699641       2.66484184       2.63740680       0.00433100       0.51744000      -0.00106100      -0.15894000      -0.27042000      -0.25053000       0.10390310      -0.29458052      -0.34181184      -0.16552903      -0.34042935      -0.22399835
Si       1.32601774       3.95603917       3.84384685       0.14077400       0.63379400       0.11878300       0.10799000       0.41637000       0.30478000       0.08030201       0.37737854       0.31920936       0.03309522       0.52231546       0.34357679
Si       2.47406541       2.53707629       5.12975319      -0.01164300       0.50834900       0.49600300      -0.06423000       0.34949000      -0.33320000       0.21794679       0.53379934      -0.50042275      -0.11418164       0.39582956      -0.36432797
Si       3.90553856       3.78651353       6.26336654       0.13983000       0.60149500       0.62479500      -0.03758000       0.41378000       0.30152000       0.03165499       0.33574271       0.43036448      -0.01456215       0.40755514       0.30069869
Si       2.29301009       2.41048606      -0.08238683       0.46853600       0.00341700      -0.01958200       0.09256000      -0.23686000       0.66185000      -0.14902422      -0.43233900       0.71951707       0.22183551      -0.12192556       0.61444613
Si       3.83271051       3.69609106       0.94311501       0.64473000       0.07892300       0.10568100       0.26379000       0.11780000      -0.68943000       0.14147429       0.08471110      -0.49793216       0.18586114       0.11057519      -0.53382012
Si       5.05986944       2.62294499       2.44697590       0.51257400       0.00092700       0.47812400      -0.31219000      -0.54841000       0.26564000      -0.23815647      -0.41942651       0.40648082      -0.18971047      -0.48789240       0.30468088
Si       6.18203475       3.86789694       3.89589792       0.60245600       0.15478800       0.60794000       0.38300000       0.04116000      -0.48680000       0.04544229       0.14498839      -0.32259790       0.32766687      -0.06842522      -0.42025794
Si       2.80033917       4.92683248       2.45665379       0.51596400       0.44867800       0.03227300       0.10947000       0.02048000       0.78573000       0.02071616      -0.08084661       0.79397098       0.06303849       0.07869834       0.83410290
Si       3.80031540       6.42535311       3.81360539       0.62771200       0.63032500       0.11629500       0.10059000      -0.32705000      -0.10326000       0.21388485      -0.18952141      -0.44894784       0.00801723      -0.28790994      -0.16381184
Si       5.16204792       5.30149876       5.20205482       0.51506600       0.52288900       0.49558000      -0.56469000       0.34950000       0.20027000      -0.46178636      -0.07118157       0.22476970      -0.51604251       0.31220843       0.09895570
Si       6.54970013       6.36155766       6.58695182       0.61910700       0.62638500       0.66322400      -0.55648000       0.10999000       0.16085000      -0.40626898       0.12880113       0.03428093      -0.58769090       0.09443655       0.20606432
63
Lattice="10.890201 0.019253 -0.010269 0.019156 10.915364 0.019297 -0.010319 0.019338 10.903691" Properties=species:S:1:pos:R:3:frac_pos:R:3:dft_force:R:3:gap_forces:R:3:forces:R:3 config_type=vacancy dft_energy=-10274.097732 kpoints_mp_grid="7 7 7" castep_file_name=dia64_vacancy_sample.16.castep castep_run_time=3117.62 dft_virial="-2.10339685 0.4386189 -1.29776832 0.4386189 -2.16242677 -2.57762623 -1.29776832 -2.57762623 -3.17292479" cutoff=0.0 nneightol=1.2 gap_energy=-10274.105772342251 gap_virial="_JSON [[-2.5292134725007385, -0.8782079491420297, -2.7306822755754294], [-0.8782079491420297, -4.325715619331432, -1.7529340475627904], [-2.7306822755754294, -1.7529340475627904, -5.431935907186024]]" energy=-35372.52914863149 stress="0.00589268330432441 -0.00621471869072419 -0.003940729858184482 -0.00621471869072419 0.00507128748485201 0.0027937248326378784 -0.003940729858184482 0.0027937248326378784 0.006252550076520158" free_energy=-35372.52914863149 pbc="T T T"
Si       6.94205118       9.50449488       9.92191668       0.63679300       0.86801100       0.90902300      -0.29494453       0.06727160      -0.92466025      -0.53622131      -0.21868380      -1.05282223      -0.35783089      -0.06900231      -0.96796818
Si       1.19091428       1.20215905       1.34164757       0.10928000       0.10972400       0.12295400       0.23999101       0.28708842       0.08442856       0.03655825       0.22934749      -0.29129606       0.07268386       0.43638428      -0.19172886
Si       2.82764790       2.64900516       0.27064546       0.25924800       0.24218500       0.02463700      -0.01776697      -0.86921448      -0.19994504       0.18263576      -0.74684441      -0.26359141       0.07481223      -0.84322877      -0.02716720
Si       4.19320905       3.99978563       1.62195329       0.38454200       0.36549500       0.14846800      -0.27979724       0.06797919       0.95981780      -0.27214619      -0.01873274       0.80578361      -0.34240324       0.03247168       0.85192880
Si       2.63214357      -0.02562078       2.81637339       0.24194900      -0.00323200       0.25852900       0.53584839      -0.77239543       0.58947227       0.78547394      -0.67034612       0.75772116       0.62812224      -0.54194491       0.70595016
Si       4.12134774       1.33540006       4.32830212       0.37860900       0.12097000       0.39710000      -0.66120113      -0.00843123       0.05121577      -0.75638702      -0.22986427      -0.06878951      -0.76311459      -0.19645995      -0.01437390
Si       0.07529023       2.60438732       2.93041106       0.00674900       0.23811100       0.26833900      -0.28200732       0.54775161      -0.07057529      -0.28865437       0.80221413       0.22174115      -0.09774181       0.62000672       0.13359935
Si       1.33735068       4.03042997       4.41017688       0.12253800       0.36831200       0.40393000       0.39332673       0.01681017      -0.49227771       0.18029421       0.06735264      -0.57664914       0.25481242       0.01767521      -0.60476178
Si       0.20528693       0.04583034       5.78872031       0.01934800       0.00322400       0.53090800      -1.57641706      -1.73481272      -0.80373151      -1.46205443      -1.61398761      -0.73429996      -1.54648685      -1.69087856      -0.80497156
Si       1.35788732       1.34735244       7.14459114       0.12509500       0.12205500       0.65514700       1.63549324       1.22412849       0.89723873       1.78759411       1.47667279       0.78605415       1.66720379       1.33411317       0.99062256
Si       2.79350821       2.77950573       5.77554946       0.25657200       0.25325100       0.52948100      -0.30274214      -0.93362815      -0.25624564      -0.25763700      -0.93698771      -0.19436505      -0.27902054      -0.99771630      -0.24260953
Si       4.22019431       4.03009472       7.11512972       0.38749400       0.36737400       0.65225800      -0.29857632       0.18178452       0.50190176      -0.24938311       0.28752790       0.54833073      -0.28176966       0.28572012       0.49071042
Si       2.76184284      -0.10455764       8.41916809       0.25436000      -0.01139600       0.77239900      -0.17723963       0.73252126       0.23825783      -0.20865332       0.57708408       0.08722237      -0.13296485       0.55672443       0.12031585
Si       4.21063765       1.16676531       9.79532406       0.38731200       0.10461700       0.89852900      -0.75574191       1.17340295      -0.12528917      -0.58316154       1.20358094      -0.16343755      -0.74519811       1.27200337      -0.12452130
Si       0.10761551       2.72445733       8.65441883       0.01019700       0.24817500       0.79328500      -0.33499776      -0.40558174      -1.09920791      -0.28429803      -0.32626229      -1.24288972      -0.41207194      -0.37295508      -1.14800489
Si       1.47955622       4.08133772       9.88157159       0.13606500       0.37206300       0.90572900       0.69528973      -0.00342165      -0.09300928       0.81586688       0.33784080      -0.10133386       0.73515884      -0.02892220      -0.10088357
Si       0.19000191       5.43800627       0.28736605       0.01659500       0.49812300       0.02548900      -0.51625789      -0.02015729       0.16661740      -0.42454988       0.03369582       0.13342062      -0.49952006       0.00061896       0.18992421
Si       1.35781367       6.76500282       1.75000336       0.12374400       0.61926800       0.15951700       0.10328728       1.08176074      -0.25368323       0.07527296       0.96187349      -0.21750685       0.07118812       1.10650074      -0.24180276
Si       2.59477792       8.17372547       0.25563990       0.23697200       0.74837000       0.02234400       0.53562060      -0.01092003       0.48115395       0.50007264      -0.07108955       0.32355200       0.55944401      -0.06415323       0.31466540
Si       4.13545480       9.36098619       1.61199904       0.37837300       0.85667000       0.14668000      -0.15289142       1.10729766       0.07852578      -0.01495515       0.95565452       0.15657830      -0.09673098       1.08748840       0.14635939
Si       2.71182556       5.40094550       3.01651806       0.24840800       0.49387500       0.27601100       0.70618505      -0.66120347       0.10643470       0.70076780      -0.59189901       0.18815351       0.74732916      -0.62313806       0.17516724
Si       4.07786497       6.80055011       4.36736665       0.37373800       0.62165800       0.39979200      -0.12273468      -0.48783712       0.39169730      -0.22200015      -0.52075768       0.41683930      -0.15439117      -0.52773083       0.45112779
Si      -0.04093449       8.27175654       3.00645127      -0.00483100       0.75733100       0.27438300      -0.01021077      -0.88585416      -0.17497264      -0.05717069      -1.06521540      -0.08986167      -0.07515008      -1.04001610      -0.03775101
Si       1.39179902       9.42817244       4.39764059       0.12666600       0.86281700       0.40190900       0.72761934       1.04210927       0.08853051       0.90123068       0.93463023       0.23554239       0.77285449       1.00245432       0.10460000