8
Lattice="4.274290845193297 0.0 0.0 0.0 4.274290845193297 0.0 0.0 0.0 4.274290845193297" Properties=species:S:1:pos:R:3:dft_force:R:3 abs_max_fc=0.84904691 dft_energy=-3471.5990459559216 config_type=crystal_3C username=msufgx volume=78.08942258240003 formula=C4Si4 hash=99ac0d0ef537e754cfdc69ee0b22ef88 cell_type=cubic potential_seed=dft seed_index=8 dft_type=sp rel_dft_e_pa=0.026440838100825204 n_atoms=8 potential_hash=n/a hardware=barbagallo hash_structure=81d27930dfb2e75f402845cd145f027c seed_type=finite_diff seed_pres=0GPa rel_atom_dft_e_pa=-7.661382142218031 seed_temp_k=0 dft_index=1 seed_fullpath=/storage/chem/msufgx/postgrad/software/SiC-framework/testing-dir/SiC/run_dir_py3/run_SiC-model-QE-test-bulk_3C/combined-relaxed-frames.xyz generation=8 filename=/home/chem/msufgx/Documents/scratch/abcd_dump.xyz seed_temp=0K seed_pres_gpa=0 dft_fullpath=/storage/chem/msufgx/postgrad/software/SiC-framework/testing-dir/SiC/run_dir_py3/run_SiC-model-QE-test-bulk_3C/finite-difference/08/atom_000/minusx/006.xyz dft_virial="6.951661575909732 0.0 0.0 0.0 6.982850379044325 -0.3771335735355384 0.0 -0.3771335735355384 6.982850379044325" pbc="T T T"
Si      -0.03000000       0.00000000       0.00000000       0.84904691       0.00000000       0.00000000
Si       0.00000000       2.13714542       2.13714542       0.13203489       0.00000000       0.00000000
Si       2.13714542       0.00000000       2.13714542      -0.18016748       0.00000000       0.00000000
Si       2.13714542       2.13714542       0.00000000      -0.18016748       0.00000000       0.00000000
C        1.06857271       1.06857271       1.06857271      -0.15105231      -0.10217255      -0.10217255
C        1.06857271       3.20571813       3.20571813      -0.15105231       0.10217255       0.10217255
C        3.20571813       1.06857271       3.20571813      -0.15932124       0.11505867      -0.11505867
C        3.20571813       3.20571813       1.06857271      -0.15932124      -0.11505867       0.11505867
8
Lattice="4.036325649709673 0.0 0.0 0.0 4.036325649709673 0.0 0.0 0.0 4.036325649709673" Properties=species:S:1:pos:R:3:dft_force:R:3 abs_max_fc=0.38574466 dft_energy=-3468.3247972800186 config_type=crystal_3C username=msufgx volume=65.75951375360007 formula=C4Si4 hash=21564ee57498ca38ef62a4e04cccf603 cell_type=cubic potential_seed=dft seed_index=2 dft_type=sp rel_dft_e_pa=0.4357219225886979 n_atoms=8 potential_hash=n/a hardware=barbagallo hash_structure=cfeafafcc4d698ac26d06e93bda87f49 seed_type=finite_diff seed_pres=0GPa rel_atom_dft_e_pa=-7.252101057730158 seed_temp_k=0 dft_index=1 seed_fullpath=/storage/chem/msufgx/postgrad/software/SiC-framework/testing-dir/SiC/run_dir_py3/run_SiC-model-QE-test-bulk_3C/combined-relaxed-frames.xyz generation=8 filename=/home/chem/msufgx/Documents/scratch/abcd_dump.xyz seed_temp=0K seed_pres_gpa=0 dft_fullpath=/storage/chem/msufgx/postgrad/software/SiC-framework/testing-dir/SiC/run_dir_py3/run_SiC-model-QE-test-bulk_3C/finite-difference/02/atom_004/minusx/002.xyz dft_virial="32.37356255771907 0.0 0.0 0.0 32.37978145034652 0.2521368506038678 0.0 0.2521368506038678 32.37978145034652" pbc="T T T"
Si       0.00000000       0.00000000       0.00000000      -0.07775839      -0.06986381      -0.06986381
Si       0.00000000       2.01816282       2.01816282      -0.07775839       0.06986381       0.06986381
Si       2.01816282       0.00000000       2.01816282      -0.07662067       0.06759019      -0.06759019
Si       2.01816282       2.01816282       0.00000000      -0.07662067      -0.06759019       0.06759019
C        0.99908141       1.00908141       1.00908141       0.38574466       0.00000000       0.00000000
C        1.00908141       3.02724424       3.02724424       0.01182013       0.00000000       0.00000000
C        3.02724424       1.00908141       3.02724424      -0.04440321       0.00000000       0.00000000
C        3.02724424       3.02724424       1.00908141      -0.04440321       0.00000000       0.00000000
8
Lattice="4.555354177190322 0.0 0.0 0.0 4.555354177190322 0.0 0.0 0.0 4.555354177190322" Properties=species:S:1:pos:R:3:dft_force:R:3 abs_max_fc=1.50473453 dft_energy=-3470.8157291278126 config_type=crystal_3C username=msufgx volume=94.52930102080006 formula=C4Si4 hash=8c0baf95a2477ff218896d02ffbb9516 cell_type=cubic potential_seed=dft seed_index=16 dft_type=sp rel_dft_e_pa=0.12435544161445478 n_atoms=8 potential_hash=n/a hardware=barbagallo hash_structure=d1192920499fbe293fc340664accc7a3 seed_type=finite_diff seed_pres=0GPa rel_atom_dft_e_pa=-7.563467538704401 seed_temp_k=0 dft_index=1 seed_fullpath=/storage/chem/msufgx/postgrad/software/SiC-framework/testing-dir/SiC/run_dir_py3/run_SiC-model-QE-test-bulk_3C/combined-relaxed-frames.xyz generation=8 filename=/home/chem/msufgx/Documents/scratch/abcd_dump.xyz seed_temp=0K seed_pres_gpa=0 dft_fullpath=/storage/chem/msufgx/postgrad/software/SiC-framework/testing-dir/SiC/run_dir_py3/run_SiC-model-QE-test-bulk_3C/finite-difference/16/atom_000/minusx/013.xyz dft_virial="-13.444725103744354 0.0 0.0 0.0 -13.338403926694488 -0.22297069701315148 0.0 -0.22297069701315148 -13.338403926694488" pbc="T T T"
Si      -0.08000000       0.00000000       0.00000000       1.50473453       0.00000000       0.00000000
Si       0.00000000       2.27767709       2.27767709       0.31403120       0.00000000       0.00000000
Si       2.27767709       0.00000000       2.27767709      -0.38519933       0.00000000       0.00000000
Si       2.27767709       2.27767709       0.00000000      -0.38519933       0.00000000       0.00000000
C        1.13883854       1.13883854       1.13883854      -0.23899304      -0.07902363      -0.07902363
C        1.13883854       3.41651563       3.41651563      -0.23899304       0.07902363       0.07902363
C        3.41651563       1.13883854       3.41651563      -0.28519036       0.13183537      -0.13183537
C        3.41651563       3.41651563       1.13883854      -0.28519036      -0.13183537       0.13183537
8
Lattice="4.555354177190322 0.0 0.0 0.0 4.555354177190322 0.0 0.0 0.0 4.555354177190322" Properties=species:S:1:pos:R:3:dft_force:R:3 abs_max_fc=0.16646607 dft_energy=-3470.875170355013 config_type=crystal_3C username=msufgx volume=94.52930102080006 formula=C4Si4 hash=5802cd78ae21c4edf29c6422b2150371 cell_type=cubic potential_seed=dft seed_index=16 dft_type=sp rel_dft_e_pa=0.11692528821441783 n_atoms=8 potential_hash=n/a hardware=barbagallo hash_structure=e6213cae30f4bf8570b82c9e71025cae seed_type=finite_diff seed_pres=0GPa rel_atom_dft_e_pa=-7.570897692104438 seed_temp_k=0 dft_index=1 seed_fullpath=/storage/chem/msufgx/postgrad/software/SiC-framework/testing-dir/SiC/run_dir_py3/run_SiC-model-QE-test-bulk_3C/combined-relaxed-frames.xyz generation=8 filename=/home/chem/msufgx/Documents/scratch/abcd_dump.xyz seed_temp=0K seed_pres_gpa=0 dft_fullpath=/storage/chem/msufgx/postgrad/software/SiC-framework/testing-dir/SiC/run_dir_py3/run_SiC-model-QE-test-bulk_3C/finite-difference/16/atom_004/minusx/002.xyz dft_virial="-13.464427068797676 0.0 0.0 0.0 -13.4631251768338 0.027426524038986322 0.0 0.027426524038986322 -13.4631251768338" pbc="T T T"
Si       0.00000000       0.00000000       0.00000000      -0.03314409      -0.01344044      -0.01344044
Si       0.00000000       2.27767709       2.27767709      -0.03314409       0.01344044       0.01344044
Si       2.27767709       0.00000000       2.27767709      -0.03237585       0.01263492      -0.01263492
Si       2.27767709       2.27767709       0.00000000      -0.03237585      -0.01263492       0.01263492
C        1.12883854       1.13883854       1.13883854       0.16646607       0.00000000       0.00000000
C        1.13883854       3.41651563       3.41651563       0.00680005       0.00000000       0.00000000
C        3.41651563       1.13883854       3.41651563      -0.02111313       0.00000000       0.00000000
C        3.41651563       3.41651563       1.13883854      -0.02111313       0.00000000       0.00000000
8
Lattice="4.158712391347172 0.0 0.0 0.0 4.158712391347172 0.0 0.0 0.0 4.158712391347172" Properties=species:S:1:pos:R:3:dft_force:R:3 abs_max_fc=0.79204761 dft_energy=-3470.573326718915 config_type=crystal_3C username=msufgx volume=71.92446816799988 formula=C4Si4 hash=226bdcc89d78612ce31d6e4d758c7402 cell_type=cubic potential_seed=dft seed_index=5 dft_type=sp rel_dft_e_pa=0.15465574272667482 n_atoms=8 potential_hash=n/a hardware=barbagallo hash_structure=0a33618aad58ce477f8ce2715acbf409 seed_type=finite_diff seed_pres=0GPa rel_atom_dft_e_pa=-7.533167237592181 seed_temp_k=0 dft_index=1 seed_fullpath=/storage/chem/msufgx/postgrad/software/SiC-framework/testing-dir/SiC/run_dir_py3/run_SiC-model-QE-test-bulk_3C/combined-relaxed-frames.xyz generation=8 filename=/home/chem/msufgx/Documents/scratch/abcd_dump.xyz seed_temp=0K seed_pres_gpa=0 dft_fullpath=/storage/chem/msufgx/postgrad/software/SiC-framework/testing-dir/SiC/run_dir_py3/run_SiC-model-QE-test-bulk_3C/finite-difference/05/atom_004/minusx/005.xyz dft_virial="18.227279950241034 0.0 0.0 0.0 18.257261201409133 0.4529546294317032 0.0 0.4529546294317032 18.257261201409133" pbc="T T T"
Si       0.00000000       0.00000000       0.00000000      -0.16043555      -0.13100850      -0.13100850
Si       0.00000000       2.07935620       2.07935620      -0.16043555       0.13100850       0.13100850
Si       2.07935620       0.00000000       2.07935620      -0.15392526       0.11980029      -0.11980029
Si       2.07935620       2.07935620       0.00000000      -0.15392526      -0.11980029       0.11980029
C        1.01467810       1.03967810       1.03967810       0.79204761       0.00000000       0.00000000
C        1.03967810       3.11903429       3.11903429       0.02547449       0.00000000       0.00000000
C        3.11903429       1.03967810       3.11903429      -0.09440037       0.00000000       0.00000000
C        3.11903429       3.11903429       1.03967810      -0.09440037       0.00000000       0.00000000
8
Lattice="3.99383485573093 0.0 0.0 0.0 3.99383485573093 0.0 0.0 0.0 3.99383485573093" Properties=species:S:1:pos:R:3:dft_force:R:3 abs_max_fc=6.4680854 dft_energy=-3466.6878060057343 config_type=crystal_3C username=msufgx volume=63.704528948799926 formula=C4Si4 hash=bf332581df775cb33b83fbd3ab8a256e cell_type=cubic potential_seed=dft seed_index=1 dft_type=sp rel_dft_e_pa=0.6403458318742423 n_atoms=8 potential_hash=n/a hardware=barbagallo hash_structure=8a71ae4725d30bcd343a3184e338c502 seed_type=finite_diff seed_pres=0GPa rel_atom_dft_e_pa=-7.047477148444614 seed_temp_k=0 dft_index=1 seed_fullpath=/storage/chem/msufgx/postgrad/software/SiC-framework/testing-dir/SiC/run_dir_py3/run_SiC-model-QE-test-bulk_3C/combined-relaxed-frames.xyz generation=8 filename=/home/chem/msufgx/Documents/scratch/abcd_dump.xyz seed_temp=0K seed_pres_gpa=0 dft_fullpath=/storage/chem/msufgx/postgrad/software/SiC-framework/testing-dir/SiC/run_dir_py3/run_SiC-model-QE-test-bulk_3C/finite-difference/01/atom_004/minusx/018.xyz dft_virial="37.487688532615486 0.0 0.0 0.0 39.22814072912253 4.514963217521676 0.0 4.514963217521676 39.22814072912253" pbc="T T T"
Si       0.00000000       0.00000000       0.00000000      -1.44611132      -1.54966712      -1.54966712
Si       0.00000000       1.99691743       1.99691743      -1.44611132       1.54966712       1.54966712
Si       1.99691743       0.00000000       1.99691743      -1.16742765       0.92787128      -0.92787128
Si       1.99691743       1.99691743       0.00000000      -1.16742765      -0.92787128       0.92787128
C        0.83845871       0.99845871       0.99845871       6.46808540       0.00000000       0.00000000
C        0.99845871       2.99537614       2.99537614       0.21335837       0.00000000       0.00000000
C        2.99537614       0.99845871       2.99537614      -0.72718279       0.00000000       0.00000000
C        2.99537614       2.99537614       0.99845871      -0.72718279       0.00000000       0.00000000
8
Lattice="4.683741016129315 0.0 0.0 0.0 4.683741016129315 0.0 0.0 0.0 4.683741016129315" Properties=species:S:1:pos:R:3:dft_force:R:3 abs_max_fc=2.37784105 dft_energy=-3469.2587244918886 config_type=crystal_3C username=msufgx volume=102.74924024 formula=C4Si4 hash=316c2fdbef1e05e4081d86722fc9e930 cell_type=cubic potential_seed=dft seed_index=20 dft_type=sp rel_dft_e_pa=0.3189810211049462 n_atoms=8 potential_hash=n/a hardware=barbagallo hash_structure=ae2d9d667ac409bfd981ddf9b34f862f seed_type=finite_diff seed_pres=0GPa rel_atom_dft_e_pa=-7.36884195921391 seed_temp_k=0 dft_index=1 seed_fullpath=/storage/chem/msufgx/postgrad/software/SiC-framework/testing-dir/SiC/run_dir_py3/run_SiC-model-QE-test-bulk_3C/combined-relaxed-frames.xyz generation=8 filename=/home/chem/msufgx/Documents/scratch/abcd_dump.xyz seed_temp=0K seed_pres_gpa=0 dft_fullpath=/storage/chem/msufgx/postgrad/software/SiC-framework/testing-dir/SiC/run_dir_py3/run_SiC-model-QE-test-bulk_3C/finite-difference/20/atom_004/minusx/019.xyz dft_virial="-19.875456308508518 0.0 0.0 0.0 -19.50309633884053 -0.025471799293224767 0.0 -0.025471799293224767 -19.50309633884053" pbc="T T T"
Si       0.00000000       0.00000000       0.00000000      -0.59373611      -0.21733895      -0.21733895
Si       0.00000000       2.34187051       2.34187051      -0.59373611       0.21733895       0.21733895
Si       2.34187051       0.00000000       2.34187051      -0.38293625       0.02673562      -0.02673562
Si       2.34187051       2.34187051       0.00000000      -0.38293625      -0.02673562       0.02673562
C        0.99093525       1.17093525       1.17093525       2.37784105       0.00000000       0.00000000
C        1.17093525       3.51280576       3.51280576       0.13301011       0.00000000       0.00000000
C        3.51280576       1.17093525       3.51280576      -0.27875335       0.00000000       0.00000000
C        3.51280576       3.51280576       1.17093525      -0.27875335       0.00000000       0.00000000
8
Lattice="4.197947844265279 0.0 0.0 0.0 4.197947844265279 0.0 0.0 0.0 4.197947844265279" Properties=species:S:1:pos:R:3:dft_force:R:3 abs_max_fc=4.66204612 dft_energy=-3470.664160223055 config_type=crystal_3C username=msufgx volume=73.9794529728001 formula=C4Si4 hash=a3463dda9339f789066a0464d2a1933d cell_type=cubic potential_seed=dft seed_index=6 dft_type=sp rel_dft_e_pa=0.14330155470912587 n_atoms=8 potential_hash=n/a hardware=barbagallo hash_structure=654bd13e0ef721e0f8ecaa8431725ef2 seed_type=finite_diff seed_pres=0GPa rel_atom_dft_e_pa=-7.54452142560973 seed_temp_k=0 dft_index=1 seed_fullpath=/storage/chem/msufgx/postgrad/software/SiC-framework/testing-dir/SiC/run_dir_py3/run_SiC-model-QE-test-bulk_3C/combined-relaxed-frames.xyz generation=8 filename=/home/chem/msufgx/Documents/scratch/abcd_dump.xyz seed_temp=0K seed_pres_gpa=0 dft_fullpath=/storage/chem/msufgx/postgrad/software/SiC-framework/testing-dir/SiC/run_dir_py3/run_SiC-model-QE-test-bulk_3C/finite-difference/06/atom_004/minusx/018.xyz dft_virial="14.04678032543892 0.0 0.0 0.0 15.164550803223738 2.609059420405487 0.0 2.609059420405487 15.164550803223738" pbc="T T T"
Si       0.00000000       0.00000000       0.00000000      -1.05635959      -0.94421912      -0.94421912
Si       0.00000000       2.09897392       2.09897392      -1.05635959       0.94421912       0.94421912
Si       2.09897392       0.00000000       2.09897392      -0.81172529       0.52524064      -0.52524064
Si       2.09897392       2.09897392       0.00000000      -0.81172529      -0.52524064       0.52524064
C        0.88948696       1.04948696       1.04948696       4.66204612       0.00000000       0.00000000
C        1.04948696       3.14846088       3.14846088       0.17082435       0.00000000       0.00000000
C        3.14846088       1.04948696       3.14846088      -0.54835048       0.00000000       0.00000000
C        3.14846088       3.14846088       1.04948696      -0.54835048       0.00000000       0.00000000
8
Lattice="4.118722295284336 0.0 0.0 0.0 4.118722295284336 0.0 0.0 0.0 4.118722295284336" Properties=species:S:1:pos:R:3:dft_force:R:3 abs_max_fc=1.34895473 dft_energy=-3469.9637800194314 config_type=crystal_3C username=msufgx volume=69.86948336320006 formula=C4Si4 hash=d49e7f2a858a44361f926dc1bf29e25f cell_type=cubic potential_seed=dft seed_index=4 dft_type=sp rel_dft_e_pa=0.23084908016210193 n_atoms=8 potential_hash=n/a hardware=barbagallo hash_structure=ef504e2d99616e59672fc3448f7e2157 seed_type=finite_diff seed_pres=0GPa rel_atom_dft_e_pa=-7.456973900156754 seed_temp_k=0 dft_index=1 seed_fullpath=/storage/chem/msufgx/postgrad/software/SiC-framework/testing-dir/SiC/run_dir_py3/run_SiC-model-QE-test-bulk_3C/combined-relaxed-frames.xyz generation=8 filename=/home/chem/msufgx/Documents/scratch/abcd_dump.xyz seed_temp=0K seed_pres_gpa=0 dft_fullpath=/storage/chem/msufgx/postgrad/software/SiC-framework/testing-dir/SiC/run_dir_py3/run_SiC-model-QE-test-bulk_3C/finite-difference/04/atom_004/minusx/008.xyz dft_virial="22.574165141626487 0.0 0.0 0.0 22.656856036132034 0.812090018266645 0.0 0.812090018266645 22.656856036132034" pbc="T T T"
Si       0.00000000       0.00000000       0.00000000      -0.27712841      -0.23875547      -0.23875547
Si       0.00000000       2.05936115       2.05936115      -0.27712841       0.23875547       0.23875547
Si       2.05936115       0.00000000       2.05936115      -0.26001695       0.20775105      -0.20775105
Si       2.05936115       2.05936115       0.00000000      -0.26001695      -0.20775105       0.20775105
C        0.98968057       1.02968057       1.02968057       1.34895473       0.00000000       0.00000000
C        1.02968057       3.08904172       3.08904172       0.04319530       0.00000000       0.00000000
C        3.08904172       1.02968057       3.08904172      -0.15892966       0.00000000       0.00000000
C        3.08904172       3.08904172       1.02968057      -0.15892966       0.00000000       0.00000000
8
Lattice="4.118722295284336 0.0 0.0 0.0 4.118722295284336 0.0 0.0 0.0 4.118722295284336" Properties=species:S:1:pos:R:3:dft_force:R:3 abs_max_fc=2.68659994 dft_energy=-3469.883048061267 config_type=crystal_3C username=msufgx volume=69.86948336320006 formula=C4Si4 hash=203ba50296b498fe01bf2cbe5f6143ef cell_type=cubic potential_seed=dft seed_index=4 dft_type=sp rel_dft_e_pa=0.24094057493266519 n_atoms=8 potential_hash=n/a hardware=barbagallo hash_structure=7c0e34dd66d14cf8d8de17a8e36254b5 seed_type=finite_diff seed_pres=0GPa rel_atom_dft_e_pa=-7.446882405386191 seed_temp_k=0 dft_index=1 seed_fullpath=/storage/chem/msufgx/postgrad/software/SiC-framework/testing-dir/SiC/run_dir_py3/run_SiC-model-QE-test-bulk_3C/combined-relaxed-frames.xyz generation=8 filename=/home/chem/msufgx/Documents/scratch/abcd_dump.xyz seed_temp=0K seed_pres_gpa=0 dft_fullpath=/storage/chem/msufgx/postgrad/software/SiC-framework/testing-dir/SiC/run_dir_py3/run_SiC-model-QE-test-bulk_3C/finite-difference/04/atom_004/minusx/013.xyz dft_virial="22.53727820265 0.0 0.0 0.0 22.863037987211026 1.626746084462089 0.0 1.626746084462089 22.863037987211026" pbc="T T T"
Si       0.00000000       0.00000000       0.00000000      -0.56991947      -0.50982456      -0.50982456
Si       0.00000000       2.05936115       2.05936115      -0.56991947       0.50982456       0.50982456
Si       2.05936115       0.00000000       2.05936115      -0.50233005       0.38623703      -0.38623703
Si       2.05936115       2.05936115       0.00000000      -0.50233005      -0.38623703       0.38623703
C        0.94968057       1.02968057       1.02968057       2.68659994       0.00000000       0.00000000
C        1.02968057       3.08904172       3.08904172       0.08790010       0.00000000       0.00000000
C        3.08904172       1.02968057       3.08904172      -0.31500050       0.00000000       0.00000000
C        3.08904172       3.08904172       1.02968057      -0.31500050       0.00000000       0.00000000
8
Lattice="4.118722295284336 0.0 0.0 0.0 4.118722295284336 0.0 0.0 0.0 4.118722295284336" Properties=species:S:1:pos:R:3:dft_force:R:3 abs_max_fc=0.35533494 dft_energy=-3469.9890256529266 config_type=crystal_3C username=msufgx volume=69.86948336320006 formula=C4Si4 hash=4dd241158a3edb485a27bd3a35ee83f0 cell_type=cubic potential_seed=dft seed_index=4 dft_type=sp rel_dft_e_pa=0.2276933759752069 n_atoms=8 potential_hash=n/a hardware=barbagallo hash_structure=d436f0f4c0506cd0d33fc0b2287b9ae7 seed_type=finite_diff seed_pres=0GPa rel_atom_dft_e_pa=-7.460129604343649 seed_temp_k=0 dft_index=1 seed_fullpath=/storage/chem/msufgx/postgrad/software/SiC-framework/testing-dir/SiC/run_dir_py3/run_SiC-model-QE-test-bulk_3C/combined-relaxed-frames.xyz generation=8 filename=/home/chem/msufgx/Documents/scratch/abcd_dump.xyz seed_temp=0K seed_pres_gpa=0 dft_fullpath=/storage/chem/msufgx/postgrad/software/SiC-framework/testing-dir/SiC/run_dir_py3/run_SiC-model-QE-test-bulk_3C/finite-difference/04/atom_000/minusx/002.xyz dft_virial="22.587572742054462 0.0 0.0 0.0 22.5925123843174 -0.20291023996977628 0.0 -0.20291023996977628 22.5925123843174" pbc="T T T"
Si      -0.01000000       0.00000000       0.00000000       0.35533494       0.00000000       0.00000000
Si       0.00000000       2.05936115       2.05936115       0.04639247       0.00000000       0.00000000
Si       2.05936115       0.00000000       2.05936115      -0.06653064       0.00000000       0.00000000
Si       2.05936115       2.05936115       0.00000000      -0.06653064       0.00000000       0.00000000
C        1.02968057       1.02968057       1.02968057      -0.06665019      -0.05479432      -0.05479432
C        1.02968057       3.08904172       3.08904172      -0.06665019       0.05479432       0.05479432
C        3.08904172       1.02968057       3.08904172      -0.06768275       0.05671314      -0.05671314
C        3.08904172       3.08904172       1.02968057      -0.06768275      -0.05671314       0.05671314
8
Lattice="4.588127636221585 0.0 0.0 0.0 4.588127636221585 0.0 0.0 0.0 4.588127636221585" Properties=species:S:1:pos:R:3:dft_force:R:3 abs_max_fc=0.07879043 dft_energy=-3470.5675357282576 config_type=crystal_3C username=msufgx volume=96.58428582559996 formula=C4Si4 hash=11564d0a34f37cb05ad7db81baa83131 cell_type=cubic potential_seed=dft seed_index=17 dft_type=sp rel_dft_e_pa=0.15537961655883237 n_atoms=8 potential_hash=n/a hardware=barbagallo hash_structure=fabfc09cb6eaabb9562ff612ee6884d0 seed_type=finite_diff seed_pres=0GPa rel_atom_dft_e_pa=-7.532443363760024 seed_temp_k=0 dft_index=1 seed_fullpath=/storage/chem/msufgx/postgrad/software/SiC-framework/testing-dir/SiC/run_dir_py3/run_SiC-model-QE-test-bulk_3C/combined-relaxed-frames.xyz generation=8 filename=/home/chem/msufgx/Documents/scratch/abcd_dump.xyz seed_temp=0K seed_pres_gpa=0 dft_fullpath=/storage/chem/msufgx/postgrad/software/SiC-framework/testing-dir/SiC/run_dir_py3/run_SiC-model-QE-test-bulk_3C/finite-difference/17/atom_004/minusx/001.xyz dft_virial="-15.290934324116904 0.0 0.0 0.0 -15.290668285324287 0.009400037339173757 0.0 0.009400037339173757 -15.290668285324287" pbc="T T T"
Si       0.00000000       0.00000000       0.00000000      -0.01562819      -0.00564383      -0.00564383
Si       0.00000000       2.29406382       2.29406382      -0.01562819       0.00564383       0.00564383
Si       2.29406382       0.00000000       2.29406382      -0.01542996       0.00547439      -0.00547439
Si       2.29406382       2.29406382       0.00000000      -0.01542996      -0.00547439       0.00547439
C        1.14203191       1.14703191       1.14703191       0.07879043       0.00000000       0.00000000
C        1.14703191       3.44109573       3.44109573       0.00335092       0.00000000       0.00000000
C        3.44109573       1.14703191       3.44109573      -0.01001265       0.00000000       0.00000000
C        3.44109573       3.44109573       1.14703191      -0.01001265       0.00000000       0.00000000
8
Lattice="4.588127636221585 0.0 0.0 0.0 4.588127636221585 0.0 0.0 0.0 4.588127636221585" Properties=species:S:1:pos:R:3:dft_force:R:3 abs_max_fc=0.7046607 dft_energy=-3470.551828501149 config_type=crystal_3C username=msufgx volume=96.58428582559996 formula=C4Si4 hash=5eaf1cc944a638764a3d8ea9d6c5f9a1 cell_type=cubic potential_seed=dft seed_index=17 dft_type=sp rel_dft_e_pa=0.15734301994740463 n_atoms=8 potential_hash=n/a hardware=barbagallo hash_structure=255873bdedadf9c8323b330802f3cf40 seed_type=finite_diff seed_pres=0GPa rel_atom_dft_e_pa=-7.530479960371451 seed_temp_k=0 dft_index=1 seed_fullpath=/storage/chem/msufgx/postgrad/software/SiC-framework/testing-dir/SiC/run_dir_py3/run_SiC-model-QE-test-bulk_3C/combined-relaxed-frames.xyz generation=8 filename=/home/chem/msufgx/Documents/scratch/abcd_dump.xyz seed_temp=0K seed_pres_gpa=0 dft_fullpath=/storage/chem/msufgx/postgrad/software/SiC-framework/testing-dir/SiC/run_dir_py3/run_SiC-model-QE-test-bulk_3C/finite-difference/17/atom_004/minusx/009.xyz dft_virial="-15.278430500863852 0.0 0.0 0.0 -15.251915301199578 0.08513241363780005 0.0 0.08513241363780005 -15.251915301199578" pbc="T T T"
Si       0.00000000       0.00000000       0.00000000      -0.14697968      -0.05775546      -0.05775546
Si       0.00000000       2.29406382       2.29406382      -0.14697968       0.05775546       0.05775546
Si       2.29406382       0.00000000       2.29406382      -0.13188988       0.04270705      -0.04270705
Si       2.29406382       2.29406382       0.00000000      -0.13188988      -0.04270705       0.04270705
C        1.10203191       1.14703191       1.14703191       0.70466070       0.00000000       0.00000000
C        1.14703191       3.44109573       3.44109573       0.03103116       0.00000000       0.00000000
C        3.44109573       1.14703191       3.44109573      -0.08897637       0.00000000       0.00000000
C        3.44109573       3.44109573       1.14703191      -0.08897637       0.00000000       0.00000000
8
Lattice="4.588127636221585 0.0 0.0 0.0 4.588127636221585 0.0 0.0 0.0 4.588127636221585" Properties=species:S:1:pos:R:3:dft_force:R:3 abs_max_fc=3.07685844 dft_energy=-3470.2571298941693 config_type=crystal_3C username=msufgx volume=96.58428582559996 formula=C4Si4 hash=bcaf7451e47175ce4ae8ad01dc0c92f9 cell_type=cubic potential_seed=dft seed_index=17 dft_type=sp rel_dft_e_pa=0.1941803458198592 n_atoms=8 potential_hash=n/a hardware=barbagallo hash_structure=ca8e54c5ac7b982c2cfc99013cde645e seed_type=finite_diff seed_pres=0GPa rel_atom_dft_e_pa=-7.493642634498997 seed_temp_k=0 dft_index=1 seed_fullpath=/storage/chem/msufgx/postgrad/software/SiC-framework/testing-dir/SiC/run_dir_py3/run_SiC-model-QE-test-bulk_3C/combined-relaxed-frames.xyz generation=8 filename=/home/chem/msufgx/Documents/scratch/abcd_dump.xyz seed_temp=0K seed_pres_gpa=0 dft_fullpath=/storage/chem/msufgx/postgrad/software/SiC-framework/testing-dir/SiC/run_dir_py3/run_SiC-model-QE-test-bulk_3C/finite-difference/17/atom_004/minusx/020.xyz dft_virial="-15.149313006846523 0.0 0.0 0.0 -14.501685906016466 0.4329337951872291 0.0 0.4329337951872291 -14.501685906016466" pbc="T T T"
Si       0.00000000       0.00000000       0.00000000      -0.76657286      -0.38258838      -0.38258838
Si       0.00000000       2.29406382       2.29406382      -0.76657286       0.38258838       0.38258838
Si       2.29406382       0.00000000       2.29406382      -0.48849597       0.09183672      -0.09183672
Si       2.29406382       2.29406382       0.00000000      -0.48849597      -0.09183672       0.09183672
C        0.94703191       1.14703191       1.14703191       3.07685844       0.00000000       0.00000000
C        1.14703191       3.44109573       3.44109573       0.15846352       0.00000000       0.00000000
C        3.44109573       1.14703191       3.44109573      -0.36259188       0.00000000       0.00000000
C        3.44109573       3.44109573       1.14703191      -0.36259188       0.00000000       0.00000000
8
Lattice="4.348 0.0 0.0 0.0 4.348 0.0 0.0 0.0 4.348" Properties=species:S:1:pos:R:3:dft_force:R:3 abs_max_fc=2.03055289 dft_energy=-3471.7268461250433 config_type=crystal_3C username=msufgx volume=82.199392192 formula=C4Si4 hash=36d6b3ed1b22b0c0eb61e03789cb0aae cell_type=cubic potential_seed=dft seed_index=10 dft_type=sp rel_dft_e_pa=0.010465816960618213 n_atoms=8 potential_hash=n/a hardware=barbagallo hash_structure=4b1439f2c6ef55f324f5cefe88c7dfb7 seed_type=finite_diff seed_pres=0GPa rel_atom_dft_e_pa=-7.677357163358238 seed_temp_k=0 dft_index=1 seed_fullpath=/storage/chem/msufgx/postgrad/software/SiC-framework/testing-dir/SiC/run_dir_py3/run_SiC-model-QE-test-bulk_3C/combined-relaxed-frames.xyz generation=8 filename=/home/chem/msufgx/Documents/scratch/abcd_dump.xyz seed_temp=0K seed_pres_gpa=0 dft_fullpath=/storage/chem/msufgx/postgrad/software/SiC-framework/testing-dir/SiC/run_dir_py3/run_SiC-model-QE-test-bulk_3C/finite-difference/10/atom_000/minusx/013.xyz dft_virial="0.6937386047505838 0.0 0.0 0.0 0.8827204875068352 -0.7654370027611425 0.0 -0.7654370027611425 0.8827204875068352" pbc="T T T"
Si      -0.08000000       0.00000000       0.00000000       2.03055289       0.00000000       0.00000000
Si       0.00000000       2.17400000       2.17400000       0.34273165       0.00000000       0.00000000
Si       2.17400000       0.00000000       2.17400000      -0.45256635       0.00000000       0.00000000
Si       2.17400000       2.17400000       0.00000000      -0.45256635       0.00000000       0.00000000
C        1.08700000       1.08700000       1.08700000      -0.33966561      -0.19190148      -0.19190148
C        1.08700000       3.26100000       3.26100000      -0.33966561       0.19190148       0.19190148
C        3.26100000       1.08700000       3.26100000      -0.39441031       0.27144936      -0.27144936
C        3.26100000       3.26100000       1.08700000      -0.39441031      -0.27144936       0.27144936
8