1
Lattice="20.0 0.0 0.0 0.0 20.0 0.0 0.0 0.0 20.0" Properties=species:S:1:pos:R:3:map_shift:I:3:n_neighb:I:1:gap_force:R:3:dft_force:R:3:gap_forces:R:3:forces:R:3 config_type=isolated_atom gap_energy=-158.5449712922182 gap_virial="0.0 0.0 0.0 0.0 0.0 0.0 0.0 0.0 0.0" dft_energy=-158.54496821 cutoff=5.5 nneightol=1.2 energy=-158.5449712922182 free_energy=-158.5449712922182 pbc="T T T"
Si      10.00000000      10.00000000      10.00000000       -1       -1       -1        0       0.00000000       0.00000000       0.00000000       0.00000000       0.00000000       0.00000000       0.00000000       0.00000000       0.00000000       0.00000000       0.00000000       0.00000000
144
Lattice="16.35000126 0.0 0.0 0.0 16.35000126 0.0 0.0 0.0 20.90000161" Properties=species:S:1:pos:R:3:dft_force:R:3:gap_forces:R:3:forces:R:3 config_type=surface_001 dft_energy=-23442.628675 cutoff_factor=1.2 cutoff=-1.0 nneightol=1.2 gap_energy=-23442.62818619149 energy=-23442.62818619149 free_energy=-23442.62818619149 pbc="T T T"
Si       0.78922945      -0.59979046       0.22974292      -0.22590000       0.04640000       0.57368000       0.01120028      -0.03230591       0.70048782       0.01120028      -0.03230591       0.70048782
Si       1.33800917       1.42456541       1.38943903       0.76748000      -0.90064000      -0.17004000       0.95720850      -0.90711626      -0.09586921       0.95720850      -0.90711626      -0.09586921
Si       2.36853022       3.05680296      -0.05471664      -0.05407000       0.78295000       0.60437000       0.19650945       0.57024428       0.11521018       0.19650945       0.57024428       0.11521018
Si       4.13522937       4.20979382       1.30891072       0.32691000      -0.89357000      -0.18701000       0.43505383      -0.98885998      -0.04165408       0.43505383      -0.98885998      -0.04165408
Si       2.82499534      -0.09477719       2.80135166      -0.26103000       0.25810000      -0.65548000      -0.31841954       0.51757748      -0.65943748      -0.31841954       0.51757748      -0.65943748
Si       3.96282315       1.47065498       4.12543192       1.21419000      -0.44051000      -0.00242000       1.42755332      -0.65621146       0.02448395       1.42755332      -0.65621146       0.02448395
Si       0.03336502       2.49171388       2.98629766      -0.60871000       0.13078000      -0.83707000      -0.77351029       0.27625611      -0.78180560      -0.77351029       0.27625611      -0.78180560
Si       1.30619877       4.04422728       4.07418931       0.24324000       1.10792000       0.70513000       0.39132307       1.05411657       0.70551711       0.39132307       1.05411657       0.70551711
Si      -0.10541469      -0.14353423       5.64120629       0.66927000      -0.11588000      -0.14174000       0.66457267      -0.21362190      -0.01151061       0.66457267      -0.21362190      -0.01151061
Si       1.34185597       1.22470114       6.89713423      -0.45687000       0.10546000      -0.28723000      -0.48467381       0.29049077      -0.40625395      -0.48467381       0.29049077      -0.40625395
Si       2.62583717       2.75586426       5.54035727       0.01110000      -0.16022000      -0.15719000      -0.27207265       0.00780203      -0.13280474      -0.27207265       0.00780203      -0.13280474
Si       4.11256334       4.16114301       6.67996902      -0.28664000      -0.15672000      -0.31796000      -0.12284950      -0.30992739      -0.37151439      -0.12284950      -0.30992739      -0.37151439
Si       2.78477092       0.07992808       8.30559378       0.84984000       0.37755000       0.25575000       0.79898416       0.30030884       0.09584632       0.79898416       0.30030884       0.09584632
Si       3.44371230       2.37394365       8.93721393      -0.66614000      -0.24883000       0.25111000      -0.51990562      -0.25351784       0.05131912      -0.51990562      -0.25351784       0.05131912
Si       0.06978105       2.63417126       8.30148323      -0.90365000       0.35821000      -1.40700000      -1.04015812       0.21508488      -1.28863316      -1.04015812       0.21508488      -1.28863316
Si       1.59099320       3.96586526       9.21090629       1.19510000      -1.21544000       1.50600000       1.01850151      -1.02165646       1.48760526       1.01850151      -1.02165646       1.48760526
Si       0.83672098       4.77431146       0.69742192       0.34355000      -0.46475000      -0.24553000       0.14736738      -0.45513759      -0.26590359       0.14736738      -0.45513759      -0.26590359
Si       1.66171644       6.93497656       1.22832933      -0.67176000      -0.26110000       0.78719000      -0.74756485      -0.27357112       0.79764095      -0.74756485      -0.27357112       0.79764095
Si       2.27001619       8.71001156      -0.25112244       0.29412000       0.46374000       0.28415000       0.35447810       0.42219082       0.14021879       0.35447810       0.42219082       0.14021879
Si       3.94993554       9.76349600       1.24236200       0.12592000      -0.41756000      -0.16697000      -0.19306822      -0.52125621      -0.24223745      -0.19306822      -0.52125621      -0.24223745
Si       2.83622271       5.46986439       2.82374335      -0.34192000      -0.06842000      -0.61222000      -0.60085571      -0.25375612      -0.32458633      -0.60085571      -0.25375612      -0.32458633
Si       4.08979173       6.85581167       4.16850591      -0.06300000      -0.19532000       0.71801000       0.00219187      -0.18327582       0.71636027       0.00219187      -0.18327582       0.71636027
Si       0.02340467       7.89921607       2.72895085      -0.07087000       0.20510000       0.11496000       0.00895017       0.43317243       0.25634233       0.00895017       0.43317243       0.25634233
Si       1.30445685       9.44882094       4.19144819      -0.81939000       0.70573000      -0.92691000      -0.78770869       0.74916107      -0.84513017      -0.78770869       0.74916107      -0.84513017
Si      -0.05461860       5.51887216       5.56495717       1.35120000      -0.25510000      -1.07325000       1.57534130      -0.16237595      -1.06224072       1.57534130      -0.16237595      -1.06224072
Si       1.34262141       6.86238252       6.94351777      -0.15892000       0.16133000       0.55717000      -0.29776989       0.11391107       0.44832546      -0.29776989       0.11391107       0.44832546
Si       2.63953019       8.17659997       5.53164618       0.76434000      -0.07710000       0.24507000       0.69706812      -0.11237764       0.39188153       0.69706812      -0.11237764       0.39188153
Si       4.06312775       9.49407892       6.88993670      -0.37360000      -0.23254000       1.12608000      -0.44346504      -0.31251937       1.11676426      -0.44346504      -0.31251937       1.11676426
Si       2.88672756       5.41795550       8.15129237      -0.26619000       1.15397000      -0.76262000      -0.20032107       1.27221271      -0.63406171      -0.20032107       1.27221271      -0.63406171
Si       4.31233017       6.29907487       9.77495602       0.67741000      -0.01177000       0.66224000       0.96172852      -0.00143816       0.48409602       0.96172852      -0.00143816       0.48409602
Si      -0.07837179       8.45695919       8.22168469      -0.34507000      -1.34805000      -0.36535000      -0.33115266      -1.41342430      -0.59694363      -0.33115266      -1.41342430      -0.59694363
Si       0.92987163       9.92467507       9.60565106       0.28639000       1.00406000       0.52395000       0.23447465       1.11060402       0.51650386       0.23447465       1.11060402       0.51650386
Si       0.66645445      10.17059844       0.73486706       0.70941000       0.52156000      -0.51460000       0.80466367       0.29683703      -0.49102691       0.80466367       0.29683703      -0.49102691
Si       1.40741439      12.38459571       1.29812157       0.00694000      -0.42606000       0.34722000      -0.06553960      -0.52576737       0.22274356      -0.06553960      -0.52576737       0.22274356
Si       2.75766030      13.77167683      -0.22469737       0.12049000      -0.24960000       0.33600000      -0.06359305      -0.23991112       0.68302259      -0.06359305      -0.23991112       0.68302259
Si       4.22761905      14.80508097       1.44130781      -0.94173000      -0.07874000       0.24126000      -0.73929400       0.20462345       0.16639787      -0.73929400       0.20462345       0.16639787
Si       2.65316311      10.88664041       2.78748130      -0.84040000       0.14367000       0.28539000      -0.80565070       0.30239741       0.27972609      -0.80565070       0.30239741       0.27972609
Si       3.80298093      12.22524227       4.31843047       1.45554000       0.17650000      -0.99904000       1.56380449       0.15104872      -1.05359395       1.56380449       0.15104872      -1.05359395
Si       0.00212287      13.55773868       2.84316339       0.86475000       0.61878000      -1.00259000       0.85343099       0.78979029      -1.06810567       0.85343099       0.78979029      -1.06810567
Si       1.37330489      14.97587231       4.17024238      -0.43415000       0.25421000      -0.22059000      -0.45711117       0.17665664      -0.03248930      -0.45711117       0.17665664      -0.03248930
Si       0.01538697      11.04097180       5.52257853      -0.72802000      -1.21703000      -1.10101000      -0.47308923      -1.35009055      -1.21742801      -0.47308923      -1.35009055      -1.21742801
Si       1.43736283      12.26578189       6.78159627       0.07521000       1.01078000      -0.42046000       0.05592752       1.19411508      -0.43812753       0.05592752       1.19411508      -0.43812753
Si       2.79903657      13.81634042       5.57519600       0.00835000       0.28904000       1.00640000       0.01289183       0.21686153       0.83780187       0.01289183       0.21686153       0.83780187
Si       4.35585222      15.22624238       6.92629665      -0.26660000      -0.44327000      -0.30484000      -0.50841253      -0.56532040      -0.24455734      -0.50841253      -0.56532040      -0.24455734
Si       2.60243298      11.04481269       8.26711507       0.79880000      -1.08745000       0.54965000       0.78056387      -0.96080433       0.34615100       0.78056387      -0.96080433       0.34615100
Si       3.74569555      12.61662211       9.69231486       0.20611000      -0.04772000      -0.07364000       0.31433252      -0.18407899      -0.02925187       0.31433252      -0.18407899      -0.02925187
Si       0.13625757      13.57910202       8.21888674      -0.37421000       0.23509000       0.53081000      -0.21087281       0.14760435       0.78044168      -0.21087281       0.14760435       0.78044168
Si       2.28348446      14.26819965       9.05310010      -0.52377000       0.02253000      -0.25958000      -0.69816489       0.09389802      -0.13487238      -0.69816489       0.09389802      -0.13487238
Si       6.13728509      -0.65122292       0.51314044       0.65245000      -0.13116000       0.22221000       0.71571888       0.01406053      -0.17151550       0.71571888       0.01406053      -0.17151550
Si       6.83780971       1.57256353       1.03399776       0.14243000      -0.20046000      -0.25091000       0.09269070      -0.06918889      -0.14949923       0.09269070      -0.06918889      -0.14949923
Si       7.65496130       3.39119479      -0.58329511       0.59374000      -1.47334000       0.46871000       0.36903978      -1.42602877       0.61464258       0.36903978      -1.42602877       0.61464258
Si       9.21274202       3.91097497       1.21873456      -0.37667000       0.56920000      -0.29740000      -0.30296023       0.56461940      -0.06402540      -0.30296023       0.56461940      -0.06402540
Si       8.20550136       0.26935972       2.55174116      -0.04938000      -0.97825000      -0.15958000      -0.02856151      -1.01199043      -0.00776415      -0.02856151      -1.01199043      -0.00776415
Si       9.41713819       1.60201567       4.02427032       1.12458000      -1.18880000      -0.24019000       1.23395485      -1.28848401      -0.42200091       1.23395485      -1.28848401      -0.42200091
Si       5.48717188       2.63256475       2.65245450      -0.96434000       0.55935000       0.14092000      -0.83899140       0.66009545       0.12816319      -0.83899140       0.66009545       0.12816319
Si       6.80185642       4.00973446       4.13717639      -1.03643000       0.67633000      -0.57221000      -1.06803438       0.97002630      -0.42309791      -1.06803438       0.97002630      -0.42309791
Si       5.63498002       0.23763028       5.46919345      -0.43287000      -0.12765000       0.07519000      -0.29944456      -0.20242943       0.15184751      -0.29944456      -0.20242943       0.15184751
Si       7.08325141       1.39741125       6.99066625      -0.24102000      -0.16392000      -0.14834000      -0.20091700       0.13055602      -0.25852343      -0.20091700       0.13055602      -0.25852343
Si       8.23218962       2.86770102       5.45072674       0.07862000      -0.03924000       1.99735000      -0.04469305      -0.09185865       2.03675576      -0.04469305      -0.09185865       2.03675576
Si       9.57713169       4.16338325       6.98374177      -0.40184000       0.02181000      -0.82453000      -0.39175595       0.24878849      -0.81963285      -0.39175595       0.24878849      -0.81963285
Si       8.55304362      -0.09842339       8.37696944      -0.55064000       0.05762000      -0.33315000      -0.67489609       0.08938052      -0.28984409      -0.67489609       0.08938052      -0.28984409
Si      10.12665760       0.98888801       9.88118322      -0.29783000      -0.64927000      -0.24889000      -0.33266843      -0.72015179      -0.38854551      -0.33266843      -0.72015179      -0.38854551
Si       5.55482780       2.94461573       8.03698786       0.33160000      -0.06955000       0.70948000       0.22520633      -0.17527945       0.99613553       0.22520633      -0.17527945       0.99613553
Si       6.25729752       4.99146400       9.07445977      -0.58255000      -0.13908000      -0.23404000      -0.64738412      -0.26127230      -0.14072675      -0.64738412      -0.26127230      -0.14072675
Si       6.22935595       4.92873018       0.28104538      -1.27683000       0.47579000       1.33886000      -1.11302058       0.52360732       0.88287406      -1.11302058       0.52360732       0.88287406
Si       6.84743001       6.98785170       1.21645705       0.18256000      -0.55345000       0.14449000       0.25917699      -0.48363956       0.34261481       0.25917699      -0.48363956       0.34261481
Si       8.58511974       7.78867720      -0.27845554      -0.71526000      -0.67819000      -0.34317000      -0.61458559      -0.85115357      -0.27315996      -0.61458559      -0.85115357      -0.27315996
Si       9.52920459       9.26894341       1.16181493       0.98349000       0.91787000       1.44878000       0.76681660       1.01949023       1.38328152       0.76681660       1.01949023       1.38328152
Si       8.03805844       5.46137215       2.78348345      -0.05391000      -0.02718000      -0.90283000       0.04119477      -0.11884167      -0.90683420       0.04119477      -0.11884167      -0.90683420
Si       9.29998950       6.71437751       4.26615107       1.05845000       1.03861000      -0.90482000       0.92303477       1.10237816      -0.86246915       0.92303477       1.10237816      -0.86246915
Si       5.15173314       8.13008065       2.56612225       1.13854000       0.83892000      -0.63759000       1.28766614       0.89711095      -0.52328308       1.28766614       0.89711095      -0.52328308
Si       6.60438321       9.46109890       3.98740357       0.05765000      -0.16120000      -0.73870000       0.12165266      -0.21402007      -0.83727372       0.12165266      -0.21402007      -0.83727372
Si       5.56236015       5.55312595       5.56451045      -0.49245000      -0.45336000      -1.97428000      -0.46561962      -0.58768157      -1.72343925      -0.46561962      -0.58768157      -1.72343925
Si       6.89080917       6.82508006       6.86803680       0.11566000      -0.25181000       0.55806000       0.28853171       0.03967328       0.61340348       0.28853171       0.03967328       0.61340348
Si       8.00274295       8.23135201       5.43041277       0.09783000      -0.08940000      -0.41689000      -0.18711081      -0.01912245      -0.57770086      -0.18711081      -0.01912245      -0.57770086
Si       9.31953404       9.67677641       6.63829475       1.50154000       0.59950000       0.34257000       1.27631028       0.39876988       0.04700031       1.27631028       0.39876988       0.04700031
Si       8.39435116       5.64896554       8.37275185      -0.09126000       0.60233000       0.33097000      -0.23877911       0.30910840       0.16645791      -0.23877911       0.30910840       0.16645791
Si       9.36877539       7.48110156       9.66614284      -1.22181000      -0.33322000      -0.18760000      -1.06767985      -0.34235350       0.01150276      -1.06767985      -0.34235350       0.01150276
Si       5.28177797       7.82121209       8.31239760      -0.06280000       1.07025000      -0.35293000      -0.27764229       1.09096219      -0.65133618      -0.27764229       1.09096219      -0.65133618
Si       7.42786183       8.67567969       8.63873117       0.22293000      -0.15874000       1.35525000       0.33097461      -0.09221542       1.32783922       0.33097461      -0.09221542       1.32783922
Si       4.73429522      11.97795851       0.64644437       0.24514000      -0.32818000      -0.14716000       0.04978780      -0.27048679       0.07837821       0.04978780      -0.27048679       0.07837821
Si       6.98942204      12.15832590       1.53633079      -1.51653000       1.55786000      -0.98093000      -1.45521680       1.73598761      -1.01965891      -1.45521680       1.73598761      -1.01965891
Si       7.81330036      14.02263730       0.30090200      -0.51532000       0.34591000      -0.06128000      -0.46841634       0.26153679       0.07950306      -0.46841634       0.26153679       0.07950306
Si       9.66147185      15.09013430       1.25747832      -0.12662000      -0.40563000       0.85912000      -0.17627981      -0.56376230       0.93393975      -0.17627981      -0.56376230       0.93393975
Si       8.23012491      10.71823889       2.70688053       0.43894000      -1.19583000       0.10287000       0.22630780      -1.05328158       0.25029410       0.22630780      -1.05328158       0.25029410
Si       9.41736282      12.14253000       4.17560937       0.18783000       0.13161000      -0.10963000       0.19560668       0.11387895      -0.16332589       0.19560668       0.11387895      -0.16332589
Si       5.54652680      13.51711061       2.97021078      -0.57685000      -0.23714000       0.16124000      -0.64426630      -0.41871896       0.23005415      -0.64426630      -0.41871896       0.23005415
Si       6.93063880      15.11201543       4.13169005       0.02643000      -0.21282000      -0.21026000       0.08247363      -0.20158091      -0.18627028       0.08247363      -0.20158091      -0.18627028
Si       5.29471876      10.79336569       5.39046428      -0.32695000      -0.26212000      -0.17667000      -0.37067892      -0.45415647      -0.20929326      -0.37067892      -0.45415647      -0.20929326
Si       6.59045196      12.05901200       6.73297682       0.11181000       0.63208000       0.33657000       0.43693921       0.77893862       0.36366009       0.43693921       0.77893862       0.36366009
Si       8.08269306      13.53530394       5.62968735       0.05748000       0.41082000      -1.09857000      -0.07597029       0.44632597      -1.10491073      -0.07597029       0.44632597      -1.10491073
Si       9.59709799      15.04061420       6.60163994       0.02802000      -0.00411000       0.48173000       0.22766156      -0.04444524       0.56199888       0.22766156      -0.04444524       0.56199888
Si       7.96333686      10.90389699       8.17014591       0.88265000       0.05605000       0.04566000       0.81173107       0.04282311       0.26163756       0.81173107       0.04282311       0.26163756
Si       9.18806766      12.47136914       9.68766280      -0.23415000      -0.55054000      -0.02846000      -0.21256011      -0.63211936      -0.21464220      -0.21256011      -0.63211936      -0.21464220
Si       5.42410451      13.47451107       8.19005113      -0.07930000       0.57848000       0.15508000      -0.10706070       0.55315057       0.08112119      -0.10706070       0.55315057       0.08112119
Si       7.68777139      13.99744915       8.90852906      -0.45858000       1.16503000      -0.21496000      -0.56390928       1.41055466       0.02373981      -0.56390928       1.41055466       0.02373981
Si      11.64872706      -0.52527180       0.30262835       0.38943000      -0.36812000       0.00350000       0.15398389      -0.05984425      -0.02785321       0.15398389      -0.05984425      -0.02785321
Si      12.48128490       1.44620273       1.25141944      -0.13685000      -0.05811000       0.67050000      -0.33134564      -0.17194087       0.76143328      -0.33134564      -0.17194087       0.76143328
Si      13.08094871       3.53901088       0.26301320       0.17518000      -0.09781000      -0.24671000       0.16046038       0.00451016      -0.23844299       0.16046038       0.00451016      -0.23844299
Si      15.13245652       3.68729744       1.30168919       0.39161000       0.35362000       0.40861000       0.35140274       0.50440289       0.43758830       0.35140274       0.50440289       0.43758830
Si      13.73071318       0.05534109       2.83632040       0.10943000       0.32632000      -0.68147000       0.20410118       0.44838431      -0.74233485       0.20410118       0.44838431      -0.74233485
Si      14.99039879       1.32039716       4.38936978      -0.20137000      -0.43661000      -0.32183000      -0.17862902      -0.43862137      -0.51720492      -0.17862902      -0.43862137      -0.51720492
Si      10.79668256       2.67324430       2.48291688       0.23507000      -0.21769000      -0.04507000       0.31588100       0.00430885      -0.09302339       0.31588100       0.00430885      -0.09302339
Si      12.14648098       3.94972965       3.93942964      -0.53385000      -0.49100000       1.58334000      -0.33777554      -0.54739057       1.68683619      -0.33777554      -0.54739057       1.68683619
Si      10.90768866       0.06069446       5.14905609      -0.36949000       0.18399000       0.34333000      -0.37262489       0.09800442       0.48224425      -0.37262489       0.09800442       0.48224425
Si      12.20932124       1.37593824       6.72013986      -1.03341000      -1.19478000       0.70012000      -0.95376367      -1.31387838       0.63702883      -0.95376367      -1.31387838       0.63702883
Si      13.61760812       2.68078399       5.62034209       0.49571000       1.98140000      -0.86491000       0.29031359       2.15039839      -0.90358485       0.29031359       2.15039839      -0.90358485
Si      15.07664076       4.26285196       6.93928470      -0.41802000      -1.67810000       0.21958000      -0.51212872      -1.83510232       0.20260039      -0.51212872      -1.83510232       0.20260039
Si      13.58352741       0.09172211       8.34272330       0.65695000       0.87140000      -0.35312000       0.65397960       0.92188850      -0.34131474       0.65397960       0.92188850      -0.34131474
Si      14.51874341       2.04927008       9.42344210      -1.13738000      -0.71168000       0.46224000      -0.95717310      -0.85292842       0.28265039      -0.95717310      -0.85292842       0.28265039
Si      10.69905416       2.56520112       8.18580377       0.72490000      -0.75997000       0.27027000       0.80225749      -0.82300728       0.07649443       0.80225749      -0.82300728       0.07649443
Si      12.77590229       3.41096539       8.70957216       0.45331000       0.37797000       0.19874000       0.49523681       0.28576066       0.52250374       0.49523681       0.28576066       0.52250374
Si       9.92269710       5.95273256       0.46387019       0.39417000       0.65965000       0.53783000       0.50402143       0.68813061       0.30123782       0.50402143       0.68813061       0.30123782
Si      11.97013774       6.63277427       1.50282554       0.17237000      -0.25661000       0.08908000       0.25101253      -0.24485424      -0.08199354       0.25101253      -0.24485424      -0.08199354
Si      12.89912100       8.57467613       0.65526210      -0.23743000       0.49748000      -0.15151000      -0.09149543       0.43953307      -0.22841745      -0.09149543       0.43953307      -0.22841745
Si      14.99204939       9.30411996       1.36313596      -0.51761000       0.62527000       0.85980000      -0.51890908       0.59487573       0.82456042      -0.51890908       0.59487573       0.82456042
Si      13.54182311       5.08980753       2.62123912       0.51001000       1.19299000      -0.86593000       0.51473693       1.09185913      -0.81237265       0.51473693       1.09185913      -0.81237265
Si      14.91072844       6.52890685       4.03432908       0.40395000       0.20106000      -1.00154000       0.22944671       0.02676232      -0.96384940       0.22944671       0.02676232      -0.96384940
Si      10.87112319       8.27459423       2.93243176      -1.22958000      -1.22483000      -0.74887000      -1.16419291      -1.61978190      -0.91196032      -1.16419291      -1.61978190      -0.91196032
Si      12.37605552       9.60289668       3.98246864       0.04954000       0.09882000       0.48013000       0.11365530       0.15039704       0.54604385       0.11365530       0.15039704       0.54604385
Si      10.82482089       5.43374515       5.40412579       0.42818000      -0.77416000       0.05853000       0.37781455      -0.98950188      -0.00765727       0.37781455      -0.98950188      -0.00765727
Si      12.15902240       6.83816278       6.67491958      -0.02932000       0.24069000      -0.36493000       0.05326641       0.33524250      -0.22512937       0.05326641       0.33524250      -0.22512937
Si      13.66078640       8.02596255       5.19628063      -0.72261000       1.00339000       1.15519000      -0.50852380       1.05781815       1.12037975      -0.50852380       1.05781815       1.12037975
Si      14.91591570       9.52374423       6.68367564      -0.10464000       0.33689000      -0.18574000      -0.30666938       0.36998801      -0.30330775      -0.30666938       0.36998801      -0.30330775
Si      13.53235956       5.56497241       8.08263693       0.04602000       0.51897000       0.82395000       0.02003644       0.62287487       0.61952586       0.02003644       0.62287487       0.61952586
Si      14.36348863       7.47687727       9.39897609       1.37778000      -1.74770000       0.28218000       1.40974026      -1.74189514       0.35450595       1.40974026      -1.74189514       0.35450595
Si      10.73641930       8.32364066       7.97477402       0.28042000      -0.53791000      -0.25525000       0.24570865      -0.62260019      -0.38943198       0.24570865      -0.62260019      -0.38943198
Si      12.86579459       8.85944617       8.75695228      -1.51554000       0.87449000      -0.48800000      -1.44143926       0.86985936      -0.25170329      -1.44143926       0.86985936      -0.25170329
Si      11.43702581      10.28507736       0.09186886      -0.34516000      -0.72704000      -0.13510000      -0.39201639      -0.66222473      -0.12349052      -0.39201639      -0.66222473      -0.12349052
Si      12.23243051      12.16763224       1.13926981       0.02606000       0.79251000       0.36830000       0.00253041       0.85125083       0.58250802       0.00253041       0.85125083       0.58250802
Si      13.25246996      14.15110817       0.25067075      -0.21471000       0.20166000       0.30478000       0.00320102      -0.01693189      -0.01223846       0.00320102      -0.01693189      -0.01223846
Si      15.13355421      15.03778011       1.47091429       0.12672000       0.31346000      -0.49933000      -0.06568275      -0.02170200      -0.38105256      -0.06568275      -0.02170200      -0.38105256
Si      13.61416693      11.04490402       2.63027838       1.35177000      -0.51897000       0.11224000       1.06762845      -0.38559876       0.08028530       1.06762845      -0.38559876       0.08028530
Si      14.98609483      12.39539815       4.15018551      -0.59409000      -1.32293000       0.29156000      -0.73220301      -1.36792112       0.39544744      -0.73220301      -1.36792112       0.39544744
Si      10.77622809      13.31517972       2.68833126       0.31985000       1.59715000      -0.57090000       0.32944431       1.47249200      -0.60197794       0.32944431       1.47249200      -0.60197794
Si      12.27077447      14.94041190       3.92382782      -0.41798000      -0.63019000      -0.03484000      -0.25694931      -0.63551345       0.23415397      -0.25694931      -0.63551345       0.23415397
Si      10.97068868      10.86144326       5.38189289      -0.52745000      -0.18397000       0.05238000      -0.43266928       0.05385807       0.11180144      -0.43266928       0.05385807       0.11180144
Si      12.27519256      12.23021258       6.73067548      -0.87778000       0.96000000       0.92882000      -0.70741208       0.79414193       0.76009260      -0.70741208       0.79414193       0.76009260
Si      13.63311644      13.72101181       5.50141613      -0.51674000       0.03189000       0.05180000      -0.65284227       0.12681637      -0.09525515      -0.65284227       0.12681637      -0.09525515
Si      14.86451116      14.94892772       7.07802877       0.73401000      -0.07925000      -0.06308000       0.74621623      -0.16023877      -0.14767292       0.74621623      -0.16023877      -0.14767292