    5187
  i="       0 " time="       0.000 " E="     -244.7256142989" Lattice="  32.61600000   0.00000000   0.00000000   0.00000000  54.14900000   0.00000000   0.00000000   0.00000000  32.61600000" Properties=species:S:1:frc:R:3
 Si        -0.0216524713       -0.0059955732       -0.0114704171
 Si         0.0064460142        0.0057880161        0.0235200415
 Si        -0.0224340435        0.0132285763        0.0089592140
 Si         0.0016073677        0.0116693912        0.0052985972
 Si         0.0065963486        0.0194357845       -0.0107695869
 Si         0.0041757289       -0.0147662204       -0.0059915786
 Si        -0.0019839195       -0.0113403284        0.0243164583
 Si        -0.0065857886       -0.0259414008       -0.0146971672
 Si        -0.0147513754        0.0022238303       -0.0020915773
 Si        -0.0254081937       -0.0155146982       -0.0115261425
 Si         0.0101324864        0.0024251536        0.0152506072
 Si        -0.0048993861        0.0072884283        0.0011449680
 Si        -0.0064318675        0.0233438045       -0.0088516141
 Si         0.0176899625       -0.0094091315        0.0021785267
 Si        -0.0002825926        0.0092878662        0.0050538115
 Si         0.0089676044        0.0127974539        0.0001562199
 Si        -0.0127714945        0.0207492906        0.0067097121
 Si        -0.0184855312        0.0129465708        0.0088919730
 Si        -0.0009330896       -0.0072645866        0.0053779661
 Si         0.0026006371       -0.0034369728       -0.0084299826
 Si        -0.0020186729       -0.0020404769        0.0010625315
 Si         0.0105136622       -0.0252219042        0.0004487065
 Si         0.0001127010        0.0102097467       -0.0035004721
 Si         0.0096630595        0.0004124303        0.0048903385
 Si         0.0074260361        0.0154167839       -0.0001733273
 Si        -0.0108428729        0.0016622780        0.0027295486
 Si         0.0209372008       -0.0026215786       -0.0165950130
 Si         0.0141488314       -0.0049614589        0.0154888842
 Si        -0.0103937656       -0.0016223115        0.0171065230
 Si        -0.0147708760       -0.0132238091        0.0066058717
 Si         0.0105150310       -0.0000565843       -0.0059353382
 Si        -0.0120886123        0.0009850994       -0.0043832086
 Si         0.0078725407        0.0034758121        0.0054254570
 Si        -0.0150725381       -0.0002866210       -0.0158443331
 Si        -0.0008853221       -0.0106742695       -0.0155920156
 Si         0.0069832070        0.0129394344        0.0073643988
 Si         0.0092340294       -0.0226493193       -0.0020442982
 Si         0.0144994950       -0.0124595126        0.0233609530
 Si         0.0258268309        0.0056278311        0.0024436004
 Si        -0.0142734495        0.0063238043       -0.0094179176
 Si         0.0065828225       -0.0040803707       -0.0022246911
 Si         0.0148242069        0.0075273174       -0.0016269743
 Si        -0.0122298542        0.0008972738       -0.0038814708
 Si         0.0066257673       -0.0020131207       -0.0070512390
 Si         0.0133980084        0.0012779519        0.0170698061
 Si        -0.0074938944        0.0003759716        0.0113488028
 Si        -0.0105526566       -0.0120691354        0.0083175988
 Si         0.0203030460        0.0047477914        0.0226274469
 Si        -0.0419604750        0.0106411357       -0.0112571904
 Si         0.0057052859        0.0034276486        0.0008788581
 Si         0.0063226902       -0.0073995858        0.0020654679
 Si         0.0086870135        0.0109555352        0.0077522965
 Si        -0.0052419828        0.0148245394       -0.0091857585
 Si        -0.0147040212        0.0221559551       -0.0111340091
 Si         0.0093399948       -0.0204476455        0.0089090393
 Si         0.0004115586       -0.0038023616       -0.0049749923
 Si        -0.0056928084        0.0013653324       -0.0167394139
 Si         0.0150042931        0.0044132013       -0.0059059474
 Si         0.0173188912       -0.0038354537        0.0187409077
 Si        -0.0054236827        0.0064686007       -0.0211080575
 Si        -0.0091459410       -0.0109482514        0.0032675554
 Si         0.0034140013       -0.0022619666       -0.0178485272
 Si        -0.0192725477        0.0142093378        0.0022547066
 Si         0.0203527484        0.0069475223        0.0011428819
 Si         0.0002724654        0.0038569682       -0.0247137510
 Si         0.0182787504        0.0309154753        0.0025920002
  O        -0.0205413422        0.0074311057        0.0255361579
  H         0.0032768323       -0.0084607419       -0.0082365076
 Si        -0.0187817016        0.0188979974       -0.0036375360
  O        -0.0005163904        0.0267371319        0.0374797255
  H        -0.0046609749       -0.0244226310       -0.0402387700
 Si         0.0016212254       -0.0369549731        0.0395700500
  O        -0.0034653383       -0.0405253222       -0.0554880460
  H         0.0054722067        0.0443923950        0.0431901496
 Si         0.0018344602       -0.0132825100       -0.0061735303
  O        -0.0210587736       -0.0074164358        0.0179169391
  H         0.0092657518        0.0051659375        0.0033927562
 Si         0.0405060772        0.0372934964       -0.0280715438
  O        -0.0083590539       -0.0143061895        0.0154524059
  H         0.0066371889        0.0044136761        0.0017161907
 Si         0.0360415302       -0.0008036301       -0.0049346569
  O        -0.0037281667        0.0006024798        0.0088544933
  H        -0.0003557533       -0.0035127803        0.0045882438
 Si        -0.0080904505       -0.0126142176        0.0116842919
 Si         0.0398312517       -0.0018408371        0.0300835285
 Si        -0.0236326789        0.0055559603       -0.0215694982
 Si         0.0116136382       -0.0060442667       -0.0012063573
 Si         0.0027430121        0.0002771547       -0.0128145323
 Si        -0.0094173810       -0.0138690820        0.0130221072
 Si        -0.0065855406        0.0051407618        0.0192126605
 Si        -0.0237658130        0.0013531782       -0.0168382915
 Si         0.0001221530       -0.0071400284        0.0122011607
 Si         0.0158989323       -0.0204098334        0.0179190348
 Si         0.0054344495       -0.0161654011        0.0012685147
 Si        -0.0114952725        0.0148668231       -0.0077738984
 Si        -0.0044852119        0.0000801208       -0.0236187219
 Si        -0.0266612040        0.0040171353       -0.0062757691
 Si        -0.0007693094        0.0018595755       -0.0120443402
 Si        -0.0110075832       -0.0128610545       -0.0196469442
 Si        -0.0032515247       -0.0020605968       -0.0070023815
 Si        -0.0034617464       -0.0027590529       -0.0121874335
 Si         0.0189658114       -0.0143608104       -0.0150936147
 Si        -0.0022515131       -0.0109842638        0.0079422139
 Si         0.0079834318        0.0105615643        0.0074415530
 Si         0.0132651828        0.0267365316        0.0181351511
 Si         0.0189658889        0.0026041966       -0.0022604001
 Si         0.0400336425       -0.0017996861       -0.0093474337
 Si        -0.0105799177        0.0071557516       -0.0008699058
 Si         0.0017132265        0.0151063097        0.0013022849
 Si        -0.0232809061        0.0032661197       -0.0205628446
 Si        -0.0015392763        0.0008048250       -0.0241060399
 Si         0.0003441911        0.0032409287        0.0068137395
 Si        -0.0093624467        0.0067082922        0.0044865773
 Si        -0.0021268913        0.0070056582        0.0212165114
 Si        -0.0292707291       -0.0101424577        0.0378948270
 Si         0.0393399774       -0.0009816847       -0.0283038404
 Si         0.0336750678        0.0138901097        0.0263514974
  O         0.0160954328       -0.0029681707        0.0066881673
  H        -0.0124607248       -0.0013360174       -0.0041583315
 Si        -0.0100916521       -0.0211100023        0.0306893785
  O        -0.0042384646        0.0112648255        0.0059715138
  H         0.0044016788       -0.0007020086       -0.0052462273
 Si         0.0100981149        0.0213264267       -0.0324587605
  O        -0.0028107100       -0.0155941403       -0.0043393409
  H        -0.0010480072        0.0030459950       -0.0030522308
 Si        -0.0102214495       -0.0081781370        0.0159411986
 Si        -0.0102562031       -0.0076311193       -0.0085562527
 Si         0.0144345742       -0.0095642405       -0.0186768854
 Si         0.0237588959       -0.0184735086       -0.0008432106
 Si         0.0064979916       -0.0243908093        0.0197272660
 Si         0.0134536828       -0.0007482688       -0.0303272906
 Si        -0.0105676767        0.0201872044        0.0158171207
 Si        -0.0153298832       -0.0053512723        0.0040349620
 Si        -0.0129306261        0.0071260566        0.0017101278
 Si         0.0065999645       -0.0061428718        0.0082955571
 Si        -0.0185646242       -0.0122956945       -0.0002143105
 Si         0.0033673089       -0.0120701260        0.0054814108
 Si         0.0014084753       -0.0021692647       -0.0060280846
 Si        -0.0065338886        0.0261145149        0.0282062407
 Si         0.0205158198       -0.0133302472        0.0077195627
 Si        -0.0100975439        0.0014812829       -0.0104710469
 Si        -0.0112544569       -0.0114898411        0.0088993639
 Si         0.0005372564       -0.0042321301        0.0037376275
 Si        -0.0129684480        0.0033463879       -0.0127500655
 Si         0.0119318007       -0.0088465869        0.0046823255
 Si         0.0084606014       -0.0034821910       -0.0083748726
 Si        -0.0119721850        0.0075873371       -0.0141286428
 Si        -0.0125811730        0.0092834227       -0.0050087222
 Si         0.0008213482        0.0016625004        0.0196928763
 Si        -0.0010178246       -0.0028793903        0.0022694471
 Si         0.0024498437        0.0088067976       -0.0006615063
 Si         0.0161102708       -0.0066959189       -0.0625947385
 Si         0.0079240105        0.0032105682       -0.0085655153
 Si        -0.0074468356       -0.0196532690       -0.0035804119
 Si         0.0150821597        0.0156857530       -0.0242176644
 Si        -0.0033754441       -0.0042991681       -0.0137007576
 Si         0.0412002740        0.0184889789       -0.0063279912
 Si        -0.0209361653        0.0168145319       -0.0095184364
 Si         0.0056668992        0.0166432756       -0.0018619046
 Si        -0.0152574874       -0.0366453754       -0.0054232155
 Si         0.0154158916       -0.0095611303        0.0124057103
 Si         0.0014394227       -0.0042174291        0.0167991430
 Si        -0.0082294062       -0.0020253653        0.0204473907
 Si        -0.0126715637        0.0049589353        0.0249600194
 Si        -0.0144056772        0.0009813246       -0.0186572468
 Si         0.0104015167        0.0068046883        0.0054550378
 Si         0.0127755234       -0.0010852863       -0.0294723464
 Si         0.0072417209       -0.0156308180        0.0090045850
 Si         0.0164842180       -0.0034129853       -0.0132547975
 Si        -0.0186803854        0.0051783223       -0.0089499587
 Si         0.0020414147        0.0106956327        0.0003492809
 Si         0.0211949628       -0.0138074276       -0.0165700697
 Si        -0.0085734300        0.0038630431       -0.0013178332
 Si        -0.0099854492       -0.0014970555       -0.0222318201
 Si         0.0239212156        0.0033547232        0.0400493868
 Si         0.0161237281       -0.0090003108        0.0178812959
 Si         0.0254222399        0.0084628363        0.0049709697
 Si         0.0062835726       -0.0023696047        0.0169248413
 Si        -0.0167849619       -0.0170850898       -0.0082149831
 Si         0.0191206049        0.0013531374       -0.0274360230
 Si         0.0294643677       -0.0306711764        0.0170947592
 Si        -0.0444327531       -0.0380987739        0.0112283009
 Si         0.0015990579       -0.0300245538        0.0468699772
 Si        -0.0131736823        0.0333611993       -0.0223586604
 Si        -0.0128873747        0.0074858441       -0.0011496060
 Si         0.0056108070       -0.0131608529       -0.0060672511
 Si        -0.0262326227        0.0094671823        0.0148826357
 Si        -0.0007893770        0.0171470300        0.0055638068
 Si         0.0146532525       -0.0078005071       -0.0244759662
 Si         0.0201820367       -0.0012422146        0.0196049873
 Si         0.0138641978        0.0012375586       -0.0103487246
 Si        -0.0009546133       -0.0051345553        0.0018267623
 Si        -0.0012764735       -0.0047796120        0.0171065964
 Si        -0.0042654516       -0.0010902232        0.0084388287
 Si        -0.0065446458       -0.0139880874       -0.0165045102
 Si         0.0092694479       -0.0153851402        0.0053282369
 Si        -0.0025901302       -0.0133004994        0.0182723251
 Si         0.0153172940        0.0070274753       -0.0308853166
 Si         0.0339076510       -0.0023517395        0.0079120954
 Si        -0.0000844793        0.0146315850        0.0153380483
 Si         0.0479570484       -0.0167454795       -0.0288782528
  O        -0.0154897675       -0.0202307841       -0.0049426397
  H         0.0038263895        0.0342216278        0.0058163577
 Si         0.0161315051       -0.0115607916       -0.0009210040
  O        -0.0408360926        0.0393378475       -0.0180995885
  H         0.0431658562       -0.0169574347        0.0039584652
 Si         0.0549688826       -0.0242750555       -0.0184464808
  O        -0.0037611091        0.0608774289        0.0170193022
  H        -0.0075718092       -0.0376072191       -0.0098253111
 Si         0.0052940587        0.0058800699        0.0187056850
 Si        -0.0030702817        0.0054505286        0.0031177016
 Si        -0.0023957326       -0.0188442408       -0.0393156172
 Si        -0.0123414725        0.0078806744        0.0035662645
 Si        -0.0127504925       -0.0067044812        0.0012024344
 Si        -0.0026833247       -0.0012857605        0.0023011804
 Si        -0.0149342022        0.0227792574       -0.0095040719
  O         0.0034381972        0.0058536123        0.0158683147
  H        -0.0032681808        0.0036165298       -0.0034638688
 Si         0.0041476568       -0.0217492025        0.0027659165
  O         0.0004039019        0.0039851013       -0.0093917489
  H        -0.0015559953        0.0062916521        0.0057507669
 Si        -0.0140865101       -0.0058695005       -0.0091910797
  O        -0.0016102579       -0.0166295495        0.0251205950
  H        -0.0004080604        0.0167791747       -0.0148338733
 Si        -0.0389663907        0.0143106817        0.0057253597
 Si        -0.0173711890       -0.0093221608       -0.0060962465
 Si        -0.0487381682       -0.0205476646        0.0086437788
  O        -0.0058265772       -0.0176403157       -0.0234865637
  O        -0.0039544634        0.0118442529       -0.0057261959
  O         0.0004579837        0.0330074868        0.0067366477
  O         0.0062726838        0.0071643303       -0.0087421435
  O        -0.0079835674       -0.0049595591        0.0168262437
  O         0.0314979647        0.0048437910       -0.0561272904
  O         0.0192966632       -0.0038827040       -0.0327442577
  O        -0.0181478283        0.0089803508        0.0354947568
  O         0.0121105338        0.0199837914       -0.0205625637
  O        -0.0348751169       -0.0173249698        0.0025397709
  O        -0.0077447249        0.0031569821       -0.0021239172
  O         0.0576419787        0.0313009326       -0.0110160993
  O         0.0129090703        0.0313214208       -0.0214897375
  O        -0.0035886597       -0.0143839306        0.0125374392
  O         0.0107857293       -0.0160060406       -0.0090154223
  O        -0.0138140134        0.0028636988       -0.0058752835
  O        -0.0103535011       -0.0046107413       -0.0018217760
  O        -0.0112868455       -0.0046480120       -0.0094835138
  O        -0.0116622441       -0.0061024946        0.0003303907
  O        -0.0123736646       -0.0113716643       -0.0001405329
  O        -0.0058354565        0.0017930857       -0.0081076413
  O        -0.0028148625        0.0094702093        0.0035281375
  O         0.0084472374       -0.0040215858        0.0184001597
  O        -0.0277894028       -0.0078275307        0.0079750354
  O        -0.0022337509       -0.0081291743        0.0534947191
  O         0.0111679147       -0.0206245696        0.0019341454
  O        -0.0137158284       -0.0026533794        0.0103961746
  O         0.0095322687        0.0188746615        0.0345569113
  O        -0.0375032648       -0.0040098300       -0.0377968110
  O        -0.0208816402        0.0129324480       -0.0071545437
  O        -0.0354080834       -0.0212697838       -0.0534540553
  O        -0.0023768143       -0.0067800483       -0.0022025058
  O        -0.0154118470        0.0107780091        0.0068038686
  O         0.0037087611       -0.0266681748       -0.0143888570
  O        -0.0131296367        0.0142827687        0.0034176243
  O         0.0220483012        0.0228085540        0.0036855902
  O         0.0235579604        0.0086228077        0.0170277448
  O        -0.0079569576        0.0070435234        0.0088115800
  O        -0.0326354810       -0.0110158244        0.0165729898
  O        -0.0307591683       -0.0056208295       -0.0044802542
  O         0.0382767084        0.0081731448        0.0437504907
  O        -0.0045354851        0.0059223820        0.0044292610
  O        -0.0133139951       -0.0055589951       -0.0164951435
  O        -0.0157477103       -0.0134792008       -0.0227668408
  O         0.0421894933        0.0199054150        0.0285262821
  O         0.0052237495        0.0067288231        0.0051901098
  O        -0.0001115233       -0.0060170352       -0.0087239852
  O         0.0171740380        0.0005439399        0.0076132131
  O        -0.0060773483       -0.0002953662       -0.0094890696
  O         0.0230757256        0.0022180260        0.0023473715
  O        -0.0305824705       -0.0048047662        0.0250938235
  O        -0.0026338480       -0.0514965558       -0.0446045880
  O        -0.0035064762       -0.0064497484       -0.0202039395
  O        -0.0059326969       -0.0118664399        0.0088093399
 Si        -0.0057423064        0.0021134430        0.0110248838
 Si         0.0030824152       -0.0090742966        0.0127555668
 Si         0.0105498481       -0.0112255730        0.0042638419
 Si         0.0076603901       -0.0128337975       -0.0123669855
 Si         0.0094634293        0.0012303075       -0.0318237161
 Si         0.0213418431        0.0029406620       -0.0037925306
 Si        -0.0011266464        0.0207204567       -0.0029496454
 Si        -0.0114516460       -0.0061070148        0.0295386969
 Si        -0.0136463817       -0.0030427632        0.0118079409
 Si        -0.0065480711        0.0344452391       -0.0073107701
 Si        -0.0073681440       -0.0203256522       -0.0023384841
 Si         0.0197945411        0.0164335455       -0.0047094447
 Si         0.0241901789        0.0058212786       -0.0059861047
 Si         0.0113883595       -0.0217711283       -0.0034347953
 Si         0.0028613229       -0.0063095396       -0.0199397421
 Si         0.0040639684       -0.0031713203       -0.0330112239
 Si        -0.0097530903        0.0139578937        0.0088291932
 Si         0.0060361300        0.0098556511        0.0010217769
 Si        -0.0090454272       -0.0074893433       -0.0060563089
 Si        -0.0074895908       -0.0076162774        0.0147105660
 Si        -0.0082027678        0.0218800681       -0.0084659061
 Si        -0.0045175556        0.0143009738       -0.0062917298
 Si         0.0006073091       -0.0140498035        0.0039959941
 Si         0.0026125715        0.0218848297       -0.0208288483
 Si        -0.0022127737       -0.0115914894        0.0012119730
 Si         0.0002956820       -0.0044478948       -0.0004468580
 Si        -0.0106156601       -0.0109608842       -0.0042859931
 Si         0.0007146889       -0.0070436049        0.0066991480
 Si         0.0098317699        0.0224035757       -0.0074035418
 Si        -0.0051759792        0.0100695409       -0.0007135045
 Si        -0.0131823358       -0.0033459580        0.0014128599
 Si        -0.0170367581        0.0208328544        0.0143786588
 Si         0.0014888417       -0.0008572699        0.0048871785
 Si        -0.0250272937       -0.0161888432       -0.0079505273
 Si        -0.0110146159       -0.0093862064        0.0037122615
 Si        -0.0105871081        0.0137995930        0.0139088854
 Si        -0.0178858981       -0.0000107021       -0.0288246685
 Si         0.0194008850       -0.0079331553        0.0180173953
 Si         0.0197022310        0.0281591575       -0.0222535259
 Si         0.0091641451       -0.0034148142       -0.0087077601
 Si        -0.0085871765        0.0208363047       -0.0040055034
 Si         0.0015313165       -0.0227845172        0.0053105546
 Si         0.0056447220        0.0107259545        0.0115456828
 Si         0.0079000436        0.0018816956        0.0146893899
 Si        -0.0203622429       -0.0034527006        0.0045551217
 Si         0.0183203056       -0.0164042633        0.0063587763
  O        -0.0333948169       -0.0337431217        0.0179207972
  H         0.0187121859        0.0158067768        0.0104556364
 Si        -0.0365616185       -0.0094559634       -0.0157124685
  O        -0.0128115370        0.0006295162        0.0244368538
  H         0.0018384667       -0.0040356375       -0.0049676935
 Si         0.0157663849       -0.0108225148        0.0011442809
  O         0.0140556169        0.0212382018        0.0213278577
  H        -0.0061071133       -0.0139128870       -0.0067399989
 Si        -0.0330783984        0.0223166748       -0.0411301853
 Si         0.0378656307       -0.0096679835        0.0187491721
 Si         0.0075754070       -0.0044402394        0.0450817407
 Si         0.0015826166       -0.0063984410       -0.0062150666
 Si         0.0057731325        0.0021801402       -0.0043212630
 Si        -0.0113559127       -0.0061409914        0.0215489760
 Si         0.0059369434        0.0029606568       -0.0298198347
 Si        -0.0176238811        0.0018885506        0.0022703748
 Si         0.0109920780        0.0055527446        0.0089143156
 Si         0.0104233891       -0.0005808752       -0.0076205480
 Si         0.0119943189       -0.0119197243       -0.0041591568
 Si         0.0182749784        0.0027496437       -0.0015210759
 Si         0.0009007451        0.0039693791       -0.0023439109
 Si        -0.0235563508        0.0090539453       -0.0080793332
 Si        -0.0255617222        0.0045189941       -0.0124407426
 Si        -0.0037213231        0.0104114301       -0.0082985569
 Si        -0.0079237486       -0.0094535259       -0.0050006889
 Si        -0.0212050778       -0.0101305315        0.0243210895
 Si         0.0151545081        0.0006718645       -0.0052653755
 Si         0.0022316995       -0.0004104484        0.0154572228
 Si        -0.0097400644        0.0080929274        0.0152529376
 Si         0.0031587503        0.0160012756        0.0010656081
 Si        -0.0204334612        0.0186754877       -0.0010228969
 Si        -0.0100507070        0.0041448360       -0.0115585732
 Si         0.0058968549       -0.0009813433       -0.0023380120
 Si         0.0205415462        0.0018538918        0.0092797393
 Si        -0.0053527767        0.0193119370        0.0019413929
 Si        -0.0082283331       -0.0010241033        0.0003662322
 Si        -0.0332019180       -0.0065685021        0.0275548782
 Si        -0.0099576697       -0.0017267124        0.0153879835
 Si        -0.0210835395        0.0013124283       -0.0018254899
 Si         0.0068661839       -0.0384169672       -0.0046162674
 Si         0.0261240235       -0.0030467824       -0.0162070481
 Si        -0.0083039476       -0.0060173919       -0.0054727353
 Si        -0.0090997077        0.0383198932        0.0048939452
 Si         0.0029836743       -0.0017907144       -0.0233109209
 Si         0.0330939770       -0.0235388778        0.0031956332
 Si         0.0214497487        0.0081084855       -0.0101086593
 Si         0.0080966430       -0.0061395513       -0.0114556696
 Si         0.0224726622       -0.0025206138       -0.0039520640
 Si         0.0349682435       -0.0052677569       -0.0030049882
 Si         0.0007551929       -0.0186437030       -0.0083839416
 Si        -0.0116864004       -0.0012300449       -0.0148666417
 Si         0.0220185475        0.0169738892        0.0025177435
 Si         0.0089094457        0.0011026036        0.0136224230
 Si        -0.0012964381        0.0217712866        0.0138720601
 Si         0.0027575969       -0.0162727731        0.0146279516
 Si        -0.0077295206        0.0054963443        0.0061473910
 Si         0.0048657147       -0.0151921273        0.0086762620
 Si        -0.0034223446        0.0004210697        0.0068106893
 Si         0.0005932469       -0.0176311633       -0.0030982045
 Si        -0.0031236185       -0.0008868761        0.0093637049
 Si         0.0081393941       -0.0021364042        0.0555820755
 Si         0.0455927137       -0.0144334099       -0.0238441852
 Si        -0.0231190090        0.0160708225       -0.0173874763
 Si        -0.0098569450        0.0212433047        0.0222985552
 Si        -0.0095253717       -0.0191683296       -0.0175794541
 Si         0.0165600438       -0.0093468781       -0.0063836025
  O        -0.0228418651       -0.0095721668       -0.0118954141
  H         0.0005429489       -0.0005792128        0.0020593612
 Si        -0.0014978649       -0.0101566096       -0.0197742029
  O        -0.0064952274        0.0053393825        0.0025829362
  H        -0.0010563650       -0.0015333098        0.0101018811
 Si         0.0066320961       -0.0347761721        0.0359893398
  O         0.0216257500       -0.0121349203        0.0283337066
  H        -0.0043974836        0.0221785089       -0.0294373725
 Si        -0.0061978797       -0.0177567475        0.0080357832
  O         0.0142022348        0.0170136432        0.0053461175
  H        -0.0012983819       -0.0022311215       -0.0017947765
 Si        -0.0169993025        0.0027846578       -0.0349478297
  O        -0.0254837102       -0.0064445929       -0.0330348748
  H         0.0048938899       -0.0045018495        0.0329701223
 Si         0.0026458480        0.0130955695       -0.0152872801
  O        -0.0056048622       -0.0199256534        0.0240318751
  H        -0.0031066362        0.0099604929       -0.0202859153
 Si         0.0187878270       -0.0063254389       -0.0070288414
 Si        -0.0052637625       -0.0001153406        0.0156605222
 Si         0.0010959498        0.0081297359       -0.0012325259
 Si         0.0036177642       -0.0070851485        0.0182414723
 Si        -0.0015818657       -0.0054934199        0.0189651952
 Si         0.0050598827        0.0073201293       -0.0162129496
 Si         0.0080887579       -0.0117962646        0.0015961208
 Si        -0.0052105038       -0.0081410138       -0.0027553821
 Si         0.0033858369       -0.0109918495        0.0032980149
 Si        -0.0093678635       -0.0083541705       -0.0048083102
 Si         0.0155072287       -0.0138195369        0.0041546108
 Si         0.0101564842       -0.0075118306       -0.0096750970
 Si         0.0139776300        0.0082268511        0.0042975579
 Si        -0.0104778116        0.0002423182        0.0159352015
 Si        -0.0130642637       -0.0066836030        0.0006096539
 Si        -0.0233261562       -0.0055075675       -0.0153347107
 Si        -0.0096940825       -0.0147820576       -0.0119153848
 Si         0.0022911563        0.0107025600       -0.0161436783
 Si        -0.0050543072        0.0036630538       -0.0082274902
 Si        -0.0069056938       -0.0026598633       -0.0080002947
 Si         0.0202843223        0.0226331530        0.0001097796
 Si         0.0045994728       -0.0078487988       -0.0010463283
 Si        -0.0093937071       -0.0072638289        0.0060070644
 Si         0.0116347480       -0.0044046692       -0.0043514268
 Si        -0.0052720275        0.0028359114        0.0218922330
 Si         0.0093362989       -0.0079906412       -0.0226506417
 Si        -0.0154798236        0.0157777019       -0.0083973822
 Si        -0.0030267675       -0.0176347283        0.0050698757
 Si         0.0524158042       -0.0417603109        0.0092058219
 Si        -0.0383411688        0.0232933165        0.0330059162
 Si         0.0148191957       -0.0104530942       -0.0025394041
 Si        -0.0043542266        0.0051446643       -0.0013612478
 Si        -0.0076581931        0.0121983506       -0.0040570491
 Si        -0.0220380860        0.0043868411       -0.0083130856
 Si         0.0243158341        0.0053534199       -0.0077260991
 Si        -0.0253640990       -0.0212773881        0.0325918397
 Si         0.0083284593       -0.0039000820       -0.0145234170
 Si        -0.0104852384        0.0011248327       -0.0178178423
 Si         0.0193882390        0.0009645324       -0.0212002780
 Si        -0.0016046446        0.0221807070       -0.0153678247
 Si         0.0096616782       -0.0125278910        0.0049999802
 Si        -0.0196607661        0.0073395241       -0.0012579998
 Si         0.0091904535       -0.0037254816       -0.0040132035
 Si         0.0142811705       -0.0055881583       -0.0005507210
 Si         0.0147190729        0.0195840318       -0.0094462952
 Si        -0.0162874202       -0.0146119209       -0.0033679053
 Si         0.0125250085        0.0147445998       -0.0125776707
 Si        -0.0074642996        0.0146947944       -0.0095157279