    5156
  i=" 1040001 " time="  520000.500 " E="     -463.7689051823" Lattice="  29.04228582   0.00000000   0.00000000   0.00000000  56.86193653   0.00000000   0.00000000   0.00000000  31.97114400" Properties=species:S:1:frc:R:3
 SI        -0.0303169656        0.0000537207       -0.0392085364
 SI         0.0398714726       -0.0154686940       -0.0098624823
 SI         0.0002301418        0.0057185031       -0.0008692332
  O         0.0084956426        0.0044478010        0.0111115574
  O        -0.0022179614        0.0103558820       -0.0117882543
  O        -0.0046376330       -0.0276227730       -0.0106512796
  O         0.0144041878        0.0101544998       -0.0146097515
  O        -0.0088494588        0.0021483272       -0.0106941832
  O         0.0761646239        0.0122581238        0.0556838717
  O        -0.0132403776        0.0042437413       -0.0099690627
  H         0.0007908132       -0.0013676385        0.0048516193
  O         0.0272397704       -0.0067419162        0.0137180517
 SI        -0.0043290138        0.0275485269       -0.0476902348
  O        -0.0088663912        0.0005117328        0.0196652594
 SI         0.0069974589       -0.0152634834       -0.0132016637
  O        -0.0037615701       -0.0019241603        0.0011549053
  O         0.0246733460        0.0456369923       -0.0134604042
 SI        -0.0356879026       -0.0221249089       -0.0238297477
  O         0.0133512417       -0.0017464201        0.0067115289
  H        -0.0021652076        0.0063889197       -0.0056324041
 SI         0.0119924574        0.0016750841        0.0020746928
 SI         0.0028091250       -0.0016601656        0.0258694199
 SI        -0.0090524996        0.0350164476        0.0266316828
  O         0.0230926811        0.0039529366        0.0320947098
  O         0.0052126988        0.0137631153       -0.0087568728
  O        -0.0013313636       -0.0003691580        0.0107096143
  O        -0.0283666743       -0.0050099114        0.0156648478
  O         0.0017346159        0.0053662490        0.0046431844
  O        -0.0100004750       -0.0142813982        0.0311465326
  O         0.0126259796       -0.0163866174        0.0043788022
  H        -0.0211278360        0.0199822201       -0.0123710337
  O        -0.0142201074       -0.0096414862        0.0098570829
 SI        -0.0142470021       -0.0189863997       -0.0128257456
  O         0.0202278475        0.0178910863       -0.0039368650
 SI        -0.0092298931       -0.0133236358        0.0262380830
  O         0.0094460990        0.0063516173        0.0040974581
  O         0.0101495150        0.0157420422       -0.0135849304
 SI         0.0101378357        0.0002262776        0.0253858794
  O         0.0023075638       -0.0133611823       -0.0069395322
  H        -0.0007267309       -0.0022397884        0.0006619802
 SI         0.0217604614        0.0042867658       -0.0202137801
 SI         0.0498704398        0.0164543116        0.0077232461
 SI         0.0137724472        0.0240290039        0.0189431308
  O         0.0041874436        0.0064283975        0.0087794750
  O        -0.0428390448        0.0063634151        0.0050497609
  O         0.0024540144        0.0211182537       -0.0024377994
  O        -0.0036056398       -0.0049719398        0.0147860586
  O        -0.0091881616       -0.0288206120        0.0227155826
  O        -0.0173401638        0.0022893589       -0.0258133184
  O        -0.0128327251       -0.0214722705        0.0141393136
  H        -0.0012837436        0.0063517797        0.0018486518
  O         0.0173748974       -0.0245015245       -0.0055659055
 SI         0.0294156526       -0.0228610133        0.0391309888
  O        -0.0169689514        0.0207964397        0.0100763406
 SI        -0.0006480483       -0.0093870356       -0.0420309556
  O         0.0063897017        0.0206839629       -0.0399603522
  O        -0.0134903090       -0.0398949086        0.0344813490
 SI         0.0113302841        0.0253582006       -0.0002664511
  O         0.0230125999       -0.0122483012        0.0255236521
  H        -0.0172153720       -0.0096829081       -0.0374587282
 SI        -0.0072216997        0.0154558539        0.0280315228
 SI        -0.0258940324       -0.0067976164       -0.0272858372
 SI         0.0160319747       -0.0458197408        0.0108088700
  O         0.0016401562       -0.0101512971       -0.0089733757
  O         0.0164517287        0.0048915100       -0.0065497142
  O        -0.0271329227        0.0077030183        0.0203409893
  O        -0.0256858247       -0.0063809336        0.0262817637
  O        -0.0041046167        0.0427233520       -0.0295684904
  O        -0.0053527896       -0.0004650283       -0.0346204223
  O        -0.0036322858       -0.0766891084       -0.0027547061
  H         0.0001756798        0.0784324658        0.0109794767
  O        -0.0309150039       -0.0136860782       -0.0293007401
 SI        -0.0018160870       -0.0245973317       -0.0140201444
  O         0.0021152216        0.0021293593       -0.0000141236
 SI         0.0131966107        0.0271172943       -0.0090887161
  O         0.0002537669        0.0063848448        0.0111373645
  O        -0.0193679078       -0.0161133227        0.0209212840
 SI        -0.0048323074        0.0084518313        0.0207163388
  O         0.0202709681        0.0159748495        0.0354867136
  H        -0.0251871892       -0.0219412542       -0.0392762538
 SI        -0.0264288123       -0.0205323077       -0.0181021742
 SI        -0.0094442072        0.0099612101       -0.0450269030
 SI        -0.0018099963       -0.0130983551        0.0270352434
  O        -0.0153235475        0.0049867696       -0.0179234766
  O        -0.0076669916       -0.0118255169        0.0033239037
  O         0.0052230835        0.0273010064       -0.0191726854
  O         0.0060921661       -0.0121302569       -0.0113461491
  O        -0.0046704768       -0.0068333118        0.0042173448
  O         0.0264079915        0.0011180663        0.0026424261
  O        -0.0111731402        0.0012164875       -0.0033686577
  H         0.0048405199        0.0007914436       -0.0064816909
  O         0.0321970445        0.0126160063        0.0453977633
 SI         0.0290859386       -0.0285130077        0.0057103606
  O         0.0264538156        0.0024049380       -0.0325142781
 SI        -0.0311576879        0.0339145223        0.0049894244
  O        -0.0001136135        0.0050708116        0.0093085827
  O        -0.0083643199        0.0054830313       -0.0040448782
 SI         0.0056624073        0.0277793984        0.0049732955
  O        -0.0014405543       -0.0031015219       -0.0041563156
  H         0.0012198957       -0.0108749802        0.0002682702
 SI         0.0003586708       -0.0329555741       -0.0049056536
 SI        -0.0225213146        0.0461617493        0.0119280121
 SI        -0.0535435825        0.0407536777       -0.0126381318
  O        -0.0141302394       -0.0077159854       -0.0142592671
  O         0.0035299798       -0.0006636797        0.0070726197
  O         0.0157416687       -0.0241274658        0.0346290286
  O         0.0114441700       -0.0168726033       -0.0038927009
  O         0.0015912897       -0.0352118917        0.0343824323
  O         0.0155067999        0.0010044816        0.0142751149
  O         0.0063976372       -0.0004281328        0.0034531859
  H        -0.0058806715       -0.0002206179        0.0011569155
  O         0.0091857651       -0.0076450815        0.0422157717
 SI        -0.0231968545       -0.0177657693       -0.0521216600
  O        -0.0318308158        0.0052290352        0.0200095203
 SI         0.0254179174        0.0056013136        0.0091105966
  O        -0.0322794121        0.0181881051        0.0295316739
  O        -0.0035114617       -0.0089962224       -0.0102338807
 SI         0.0155826470        0.0126831106       -0.0142972277
  O        -0.0251919986        0.0091764837        0.0062656784
  H         0.0144411672       -0.0141672077       -0.0082465784
 SI        -0.0224199830       -0.0225161948       -0.0110425034
 SI         0.0014397092        0.0009129539       -0.0256855360
 SI        -0.0310351553       -0.0012976914        0.0000127863
  O         0.0224062594        0.0130227273        0.0363226470
  O        -0.0224767310       -0.0220946389        0.0094256707
  O        -0.0015892210        0.0266919010       -0.0014872720
  O        -0.0325809258        0.0105234887        0.0006064307
  O        -0.0023754333       -0.0187432538        0.0099220097
  O         0.0420528031       -0.0125346376        0.0191778869
  O         0.0111330251       -0.0099895472        0.0053086524
  H        -0.0007629061        0.0029925955        0.0001419723
  O         0.0027269590        0.0105401164        0.0195447701
 SI         0.0255633062       -0.0157901128        0.0045984379
  O        -0.0076630293       -0.0036759429       -0.0046384825
 SI        -0.0150311253       -0.0297886800        0.0031649950
  O        -0.0029840066        0.0025162046        0.0182224168
  O        -0.0037269522        0.0372630249       -0.0395507248
 SI        -0.0060827996        0.0121753123       -0.0161310500
  O        -0.0035195558       -0.0148307127       -0.0086333788
  H        -0.0037970683       -0.0079192635       -0.0004920557
 SI        -0.0061222542        0.0233200368       -0.0190735430
 SI        -0.0145137123        0.0071898485        0.0155433010
 SI         0.0015262555        0.0074636489       -0.0228155401
  O        -0.0092085323       -0.0189824374       -0.0300498481
  O         0.0057061371       -0.0050336901        0.0196780976
  O        -0.0117027912        0.0069475488       -0.0019418107
  O         0.0044626593        0.0015510415        0.0110779405
  O         0.0077228860        0.0007836556       -0.0036631467
  O         0.0193475757        0.0082331131        0.0320829635
  O         0.0007366652       -0.0147815944        0.0015374586
  H        -0.0005933946        0.0138386551       -0.0027874394
  O        -0.0181378210        0.0133327126        0.0150266706
 SI         0.0053600208       -0.0432288542       -0.0044020515
  O        -0.0368942549        0.0030620192       -0.0238291042
 SI         0.0073043527        0.0091696568        0.0544340670
  O        -0.0043092313       -0.0196981341        0.0050100333
  O         0.0088841729        0.0255767754       -0.0422719350
 SI        -0.0095615638       -0.0113485798       -0.0327962489
  O         0.0216356920        0.0530908863       -0.0071962423
  H        -0.0171626105       -0.0250027999        0.0244242241
 SI        -0.0120593706        0.0209514328       -0.0144076966
 SI        -0.0034099622        0.0089868850       -0.0278413490
 SI         0.0271645863       -0.0177799093       -0.0288256167
  O         0.0111609430        0.0047384419        0.0185355391
  O        -0.0428774762       -0.0288476073        0.0179735764
  O        -0.0247665000        0.0043906537        0.0229039013
  O         0.0078830147        0.0016638403       -0.0040959302
  O        -0.0025867510       -0.0062178623       -0.0075122245
  O         0.0196527148        0.0053020569        0.0177101895
  O        -0.0204534626       -0.0031773457       -0.0391276572
  H         0.0208943751       -0.0052439691        0.0165893963
  O         0.0013201478       -0.0117585258        0.0148077025
 SI         0.0156669148        0.0414539983        0.0114689759
  O         0.0069192121       -0.0107118843       -0.0091852562
 SI        -0.0036863992       -0.0065097639        0.0237820335
  O         0.0244097316        0.0078708420       -0.0052372974
  O        -0.0050755323        0.0067799767       -0.0115895168
 SI        -0.0117130410        0.0160793511       -0.0356171806
  O         0.0158958491        0.0184147594        0.0195226716
  H        -0.0001642818       -0.0070153543       -0.0013035419
 SI         0.0079191894       -0.0279506076       -0.0004994235
 SI         0.0232444599       -0.0108178428       -0.0013808606
 SI         0.0024191107       -0.0107852082        0.0027798515
  O         0.0214583778        0.0378721316        0.0322832845
  O         0.0009065816        0.0180798105        0.0214494975
  O         0.0105681283        0.0119676036       -0.0085917548
  O        -0.0147021687       -0.0292210566       -0.0118883774
  O         0.0183174661       -0.0143847254       -0.0220952529
  O        -0.0222386881       -0.0215573124       -0.0242440473
  O        -0.0113298268        0.0249513573        0.0199282392
  H         0.0112233886       -0.0293911832       -0.0143896757
  O         0.0389765199       -0.0169583059        0.0552848568
 SI         0.0241184034       -0.0162151468        0.0286627297
  O        -0.0111395816        0.0029916096        0.0098412519
 SI        -0.0307672470       -0.0219177084        0.0304144653
  O        -0.0333757589        0.0081871923        0.0182624755
  O         0.0151709797        0.0200795045       -0.0401855009
 SI         0.0254993185        0.0266184746       -0.0225241223
  O         0.0039803809        0.0140495525        0.0135457973
  H         0.0001478342        0.0018019042       -0.0012459989
 SI         0.0053918712       -0.0013854918       -0.0001792006
 SI         0.0252875194        0.0274375474        0.0269630345
 SI         0.0203211626       -0.0127399235        0.0510323135
  O         0.0134944089        0.0150318256       -0.0144183494
  O        -0.0270737110       -0.0214430993        0.0068320376
  O        -0.0065197692       -0.0054931513        0.0222369011
  O         0.0078749555       -0.0065778913        0.0137485857
  O        -0.0238227405        0.0105645507        0.0025524057
  O        -0.0234492866       -0.0029443032       -0.0421655287
  O         0.0044384443       -0.0377123881       -0.0098400218
  H        -0.0068173731        0.0337648146        0.0089832802
  O        -0.0610416938        0.0228538327       -0.0131858471
 SI         0.0258866709        0.0186930057       -0.0473822089
  O        -0.0077186682        0.0012832874        0.0202480766
 SI         0.0064249464        0.0188792414       -0.0109439381
  O         0.0268655343        0.0194890532       -0.0049354420
  O        -0.0045897221       -0.0441337935        0.0089760168
 SI        -0.0063117469       -0.0325646420       -0.0475086657
  O        -0.0052086332       -0.0016081844       -0.0004073411
  H         0.0069742003        0.0125942546        0.0068548063
 SI         0.0233145000       -0.0027853696       -0.0110854133
 SI        -0.0275926729       -0.0080137635       -0.0286514140
 SI         0.0162283262        0.0075773042       -0.0064783372
  O         0.0053481447        0.0320817263        0.0056476781
  O         0.0068794148       -0.0172704764        0.0240542051
  O         0.0097902254       -0.0120359130        0.0039380592
  O        -0.0216964606        0.0229672154        0.0093566445
  O        -0.0102803926        0.0046475303        0.0221933296
  O        -0.0171101877        0.0010912744       -0.0029406791
  O         0.0262254109        0.0174060317       -0.0197845724
  H        -0.0034051071       -0.0170178190        0.0046501207
  O        -0.0245704252       -0.0073907695       -0.0175192449
 SI        -0.0038933073        0.0211236649       -0.0069222642
  O         0.0353357488       -0.0354975342       -0.0300042670
 SI        -0.0206942167       -0.0028969373        0.0206172895
  O         0.0288786686        0.0039938632       -0.0080296406
  O        -0.0158620304       -0.0139455992        0.0139821280
 SI         0.0269462113        0.0295215961       -0.0431086140
  O         0.0187359766        0.0087832869        0.0081248232
  H        -0.0291289737       -0.0178477412        0.0032357373
 SI         0.0560330012       -0.0228890806       -0.0246697421
 SI        -0.0064902144       -0.0120686324        0.0037520157
 SI        -0.0164435939       -0.0037529820       -0.0124534125
  O         0.0079952241        0.0119446277       -0.0025682757
  O         0.0208928028       -0.0015920317        0.0016009427
  O         0.0243956247       -0.0074251629       -0.0159356622
  O         0.0102394673        0.0118729582       -0.0109449179
  O         0.0089269783        0.0162912520       -0.0086559115
  O        -0.0396412004       -0.0023663836        0.0018944400
  O         0.0194219184        0.0072825929       -0.0083434278
  H        -0.0181789981       -0.0035344503        0.0132073953
  O        -0.0245425932       -0.0179368369       -0.0270727609
 SI        -0.0670114555        0.0253936882        0.0006524515
  O         0.0218171534       -0.0494849604       -0.0283214183
 SI        -0.0052187719       -0.0251727997       -0.0145310126
  O         0.0311552909        0.0187464302       -0.0125482599
  O        -0.0041354809        0.0143153378       -0.0051638601
 SI         0.0130332464       -0.0230304891        0.0043162378
  O        -0.0081962594        0.0025200102        0.0034898367
  H         0.0046621695        0.0023794934        0.0014184607
 SI        -0.0116545298        0.0153132157       -0.0135548605
 SI         0.0228145324       -0.0176585113        0.0105844574
 SI        -0.0044397126       -0.0525885370        0.0100002919
  O         0.0362133117        0.0080840802        0.0334443613
  O         0.0136903260        0.0039390149       -0.0155268978
  O        -0.0110775345        0.0191451209        0.0008320491
  O         0.0006721350        0.0008825489        0.0113899347
  O         0.0123389805        0.0102101980       -0.0217999613
  O        -0.0036644302        0.0093757003        0.0138978571
  O        -0.0090105137       -0.0007270715        0.0145051117
  H         0.0053932772        0.0120576375        0.0006125633
  O         0.0210966384       -0.0108338085       -0.0087047657
 SI         0.0134935160        0.0151047242       -0.0251647294
  O         0.0066046653       -0.0235614592       -0.0024718771
 SI        -0.0285337221        0.0294712997       -0.0103949537
  O         0.0117241186        0.0053276106       -0.0022582185
  O         0.0064654092       -0.0266209369        0.0266990844
 SI         0.0305107043        0.0158289856        0.0376959352
  O         0.0029425048        0.0022373906        0.0247482398
  H        -0.0058812206       -0.0157678405       -0.0338351964
 SI         0.0115289028        0.0051629470       -0.0037258004
 SI        -0.0194095209        0.0118419226       -0.0290025368
 SI        -0.0389994373        0.0462695774       -0.0070974675
  O         0.0160788818       -0.0090580582        0.0101510783
  O        -0.0044424699       -0.0137132954       -0.0065607780
  O         0.0255695251       -0.0360962860        0.0072500700
  O         0.0030638610       -0.0108440246        0.0229303347
  O         0.0036250318       -0.0038934549        0.0183676055
  O        -0.0168116861       -0.0022331425        0.0117116398
  O        -0.0065454157        0.0002873320        0.0322346680
  H         0.0049619111        0.0019053339       -0.0076739203
  O         0.0134222507       -0.0092417136       -0.0353179132
 SI        -0.0052264989       -0.0067891361        0.0469252233
  O        -0.0291637344        0.0338228850        0.0193130462
 SI         0.0153652419       -0.0219017864       -0.0394502964
  O        -0.0025903439       -0.0008252361        0.0031227841
  O        -0.0343859434       -0.0125720773        0.0002993784
 SI        -0.0004412409        0.0266449102       -0.0438878647
  O        -0.0025866054       -0.0072900852        0.0049148648
  H         0.0015026326        0.0013711688        0.0030162416
 SI        -0.0381727642       -0.0334942751       -0.0001573363
 SI         0.0438057516       -0.0051902025       -0.0007932818
 SI         0.0182261927        0.0271840979        0.0079111545
  O         0.0030243798        0.0095343757        0.0199986200
  O        -0.0083556992       -0.0101092750        0.0252667196
  O        -0.0169893450       -0.0142291482        0.0098567146
  O         0.0057897690       -0.0302049842       -0.0341709205
  O        -0.0172894686       -0.0139164049       -0.0305249973
  O        -0.0093091365        0.0024708899       -0.0157281881
  O         0.0292406180        0.0273262804       -0.0440687343
  H        -0.0270601937       -0.0130244700        0.0317372134
  O         0.0269167134       -0.0016941665       -0.0023929636
 SI         0.0171054047       -0.0060770530       -0.0101868034
  O         0.0240050215        0.0147972850       -0.0139521776
 SI         0.0102672660        0.0098529959        0.0137804868
  O        -0.0220936619       -0.0042433375        0.0256955983
  O         0.0123070931        0.0111969555       -0.0117163167
 SI         0.0150573737        0.0265948187       -0.0028526353
  O         0.0005289583       -0.0047186529       -0.0060187688
  H        -0.0014314109       -0.0041730757       -0.0012029766
 SI        -0.0016086449        0.0318324969       -0.0052129294
 SI         0.0198788486       -0.0236261056        0.0019508995
 SI         0.0022360096       -0.0136217322       -0.0123388913
  O        -0.0221604188       -0.0355324975       -0.0049479571
  O        -0.0216122704       -0.0251335206       -0.0004778850
  O        -0.0145863876        0.0253117938       -0.0043391981
  O         0.0168181316       -0.0098822485        0.0029701789
  O         0.0095266753       -0.0114422599       -0.0122482357
  O        -0.0024047432        0.0085049995        0.0061429703
  O        -0.0042699952        0.0587847892       -0.0178879239
  H         0.0141770573       -0.0219945522       -0.0090967991
  O        -0.0286054340        0.0087040765        0.0194264056
 SI        -0.0119036242        0.0159001855        0.0436808809
  O        -0.0074122668        0.0015618845        0.0052314567
 SI        -0.0033155811       -0.0122830876       -0.0237557598
  O        -0.0276561361       -0.0148868621        0.0232821273
  O        -0.0076879773       -0.0143724840       -0.0110577930
 SI         0.0374339874       -0.0056905430        0.0375719564
  O        -0.0349467555       -0.0144528105       -0.0106147587
  H         0.0137711651       -0.0046164482       -0.0054730786
 SI         0.0163964524       -0.0401746416       -0.0101450299
 SI        -0.0223825959        0.0222538394        0.0096521581
 SI         0.0005264517       -0.0415526665       -0.0048764819
  O         0.0056488985        0.0050518695        0.0141370827
  O         0.0131922841        0.0028848112       -0.0020417381
  O        -0.0294572725        0.0381983234       -0.0206610280
  O         0.0119255313       -0.0112433516       -0.0015690481
  O         0.0024681856       -0.0218268498       -0.0105550412
  O        -0.0551696088       -0.0099541457       -0.0249531737
  O         0.0168080728       -0.0505954716        0.0120870364
  H        -0.0136623402        0.0347172070        0.0041794277
  O        -0.0312492454       -0.0184615340       -0.0212725895
 SI         0.0104368832       -0.0252013996        0.0135081500
  O        -0.0459816261        0.0270043146        0.0407430738
 SI        -0.0004788768       -0.0013002452       -0.0374287702
  O        -0.0467678049        0.0011228280        0.0357417760
  O         0.0110072405        0.0342409654       -0.0159360547
 SI         0.0099557995       -0.0033294880        0.0010467561
  O         0.0053439804        0.0444268762        0.0096326122
  H        -0.0025250104       -0.0058073774       -0.0006448554
 SI        -0.0143303045       -0.0181497735       -0.0279684064
 SI        -0.0054303122        0.0047228162        0.0085490844
 SI         0.0032939792        0.0250958588        0.0144980405
  O         0.0264582201        0.0406895815        0.0096139847
  O         0.0085665645        0.0068695928        0.0128225209
  O        -0.0055897678       -0.0107458459        0.0175587810
  O         0.0069369889        0.0096575374        0.0058117605
  O        -0.0280018530       -0.0178417437        0.0002329664
  O         0.0239690617        0.0042864401        0.0122734307
  O        -0.0029977958        0.0035558583        0.0046309755
  H         0.0014501103       -0.0128352203        0.0023284893
  O        -0.0192360750        0.0043682699        0.0071370393
 SI        -0.0384129249       -0.0407036578       -0.0506858437
  O         0.0147838366        0.0033436978        0.0052226861
 SI        -0.0255951125        0.0083261931        0.0112603263
  O        -0.0063937395        0.0101454412        0.0022834339
  O         0.0044633388       -0.0180970543        0.0082275396
 SI         0.0443432902        0.0084329089       -0.0203918724
  O         0.0196932279        0.0048212604        0.0144931234
  H        -0.0160837794       -0.0014812626       -0.0023649830
 SI         0.0201048178       -0.0379665735        0.0025796809
 SI         0.0283767969       -0.0029724178       -0.0305953829
 SI        -0.0071760531        0.0351808811       -0.0127463289
  O        -0.0281461456        0.0017111297       -0.0358260412
  O        -0.0257296486       -0.0056341208        0.0146111559
  O        -0.0176292259        0.0051401765       -0.0190898188
  O        -0.0128090571        0.0158396345        0.0207989245
  O        -0.0131482073       -0.0254418913        0.0046101459
  O         0.0049634343        0.0374217982        0.0235509703
  O        -0.0056356162       -0.0199334333        0.0233720632
  H        -0.0069451865        0.0099587353       -0.0089242321
  O         0.0141022205       -0.0010286507       -0.0063262614
 SI         0.0113822841       -0.0126975349       -0.0002761696
  O        -0.0087555225       -0.0074224884       -0.0098599651
 SI        -0.0362787832       -0.0504028859        0.0424020323
  O         0.0222727752        0.0036773089        0.0174209420
  O         0.0596387054        0.0484986407       -0.0300828964
 SI        -0.0042394747       -0.0066838683        0.0036084381
  O         0.0026491247       -0.0150244705       -0.0088631925
  H        -0.0062301426        0.0184247042        0.0066709873
 SI        -0.0101342755       -0.0167734165        0.0106013800
 SI         0.0117714341       -0.0000929295       -0.0018608433
 SI        -0.0284852384       -0.0289581039       -0.0099845531
  O         0.0248032163       -0.0091327903        0.0078343146
  O        -0.0024323591       -0.0085207105       -0.0332551620
  O        -0.0096752724       -0.0064395184        0.0035457363
  O         0.0148532635       -0.0195438397       -0.0224501971
  O         0.0259309567        0.0335482841       -0.0205005324
  O        -0.0435130040        0.0197065213        0.0175760891
  O        -0.0022460856       -0.0074576577       -0.0068910197
  H         0.0035612477        0.0117496849       -0.0035486129
  O        -0.0216992477        0.0251394288        0.0199746782
 SI        -0.0000534177        0.0121508272       -0.0228489977
  O        -0.0208512928        0.0211916914        0.0254784123
 SI         0.0035763331        0.0321919410        0.0006106412
  O        -0.0261756201       -0.0130670851        0.0021157347
  O         0.0125272475        0.0033507333        0.0137840503
 SI        -0.0300354672        0.0063903885        0.0056407464
  O         0.0139292306       -0.0224239319       -0.0043108730
  H        -0.0115477927        0.0170111951        0.0087226231
 SI         0.0065019887        0.0006776429        0.0122092318
 SI        -0.0204956429        0.0018004575        0.0120900998
 SI        -0.0012646385        0.0196234214       -0.0019862493
  O         0.0293207216        0.0153928429        0.0359322855
  O         0.0051476584        0.0218112532        0.0173261042
  O        -0.0215239063        0.0227824555       -0.0074564322
  O         0.0014775412       -0.0058394365       -0.0179303422
  O         0.0110999961       -0.0003552702        0.0268672678
  O         0.0154474654       -0.0075994696        0.0165476670
  O         0.0152981062       -0.0067404609        0.0069305876
  H        -0.0037192795       -0.0013314959        0.0026876133
  O         0.0263237427        0.0087461319        0.0305327953
 SI        -0.0015883481        0.0223233127       -0.0308767128
  O        -0.0124104901       -0.0175337970        0.0183143571
 SI         0.0155266104       -0.0034517751       -0.0201930223
  O        -0.0095549161       -0.0105532174       -0.0285810571
  O        -0.0023402027        0.0201222558       -0.0307532305
 SI        -0.0667721345        0.0079218783        0.0379999091
  O         0.0321966386        0.0179239281        0.0025695304
  H        -0.0128408630       -0.0158620552       -0.0000745678
 SI        -0.0096464253        0.0442951234       -0.0025963259
 SI        -0.0036576984        0.0011457176        0.0077647361
 SI        -0.0084972448       -0.0136146070        0.0047611837
  O         0.0192019839       -0.0029015402        0.0218421509
  O        -0.0301220887       -0.0033573729       -0.0115182042
  O        -0.0110786365        0.0303258813       -0.0278163993
  O         0.0047734121       -0.0120709206       -0.0039929919
  O         0.0010533409       -0.0023848651        0.0185530384
  O         0.0134627391        0.0034513507        0.0161998410
  O         0.0104880091       -0.0279981925        0.0013532140
  H        -0.0096685602        0.0274221829        0.0017627351
  O         0.0222389399        0.0217017220        0.0036588969
 SI         0.0381973716        0.0086115533       -0.0109840547
  O        -0.0045802427       -0.0265561675       -0.0172423312
 SI        -0.0298346814       -0.0018232044       -0.0000266493
  O         0.0432608494        0.0080300069       -0.0153293827
  O         0.0066897405       -0.0418473810        0.0455682662
 SI         0.0037304852       -0.0071569693       -0.0124261192