5100
Library=all_res.CHARMM.lib energy=-723.64078460 EVB_gap=4.82293188 EVB1_energy=-717.69436313 EVB2_energy=-722.51729501 QM_cell_extended="22.00000000     26.00000000     25.00000000" Time=2655.00000000 QM_list_changed=F Lattice="39.61900000       0.00000000       0.00000000       0.00000000      35.36700000       0.00000000       0.00000000       0.00000000      35.19200000" Properties=species:S:1:pos:R:3
Cl              0.22668495     -1.39325183     -1.60977008
C               0.26358011      0.25208044      0.45835037
H              -0.80064626      0.40590118      0.18561074
H               0.46827769     -0.77703691      0.84109477
H               1.06832247      0.82858748     -0.10807714
Cl              0.19904270      1.06469195      2.33170685
O               3.36217335      4.53589150      4.61863765
H               4.22513292      5.03405182      4.36766581
H               3.07998213      3.97684126      3.82276627
O               8.72433168     15.54310969     -4.93263903
H               9.63396797     15.85556716     -4.86104471
H               8.17918675     16.33096916     -5.13665950
O               4.35104173     16.70575232     11.28844158
H               3.60502558     17.32047462     10.93387068
H               4.91741556     16.44926814     10.45794712
O              12.91490904     -9.79406080     -1.99597016
H              13.63052289     -9.11102684     -2.18469160
H              12.46808758     -9.17410236     -1.40652021
O              12.47441030      0.97026621    -12.12650084
H              11.87239680      1.69177976    -12.38392568
H              11.88631296      0.26573104    -11.82941596
O              -4.25911341     -4.61427053     17.04915481
H              -4.62488892     -5.23188222    -17.52972593
H              -4.27387368     -5.11956692     16.26527815
O               2.30547627    -11.25348485    -14.94129256
H               2.51920461    -10.57104559    -14.32473851
H               3.12262951    -11.73053876    -14.81612273
O               7.64052152    -16.64242187     10.09528944
H               8.28337985    -16.02809521     10.57672145
H               7.63176014    -17.50067850     10.59295642
O              11.24109015     11.52416126     13.05873008
H              10.71020974     12.17792672     13.46396666
H              10.92358492     11.67301182     12.09437022
O              14.82021664     12.08839689    -10.58265048
H              14.79511317     12.80038538     -9.92119574
H              14.00651027     12.41062449    -11.03381826
O              -0.47916563     -6.96630791      8.36393870
H              -0.75282663     -7.37116917      9.24632556
H               0.00239191     -7.68307452      7.86722323
O              12.73963366     -1.48953463    -14.13258344
H              12.78697128     -0.53907305    -14.37740702
H              11.87359709     -1.44354390    -13.64784181
O             -15.38420853     -6.14242688     -7.49439305
H             -15.32653946     -7.10612010     -7.81383236
H             -15.81441124     -5.60206476     -8.21517834
O              -5.24177205      9.46854124    -15.24864425
H              -4.97913270      8.50808200    -15.16746440
H              -6.22564278      9.51786034    -15.13871314
O             -11.49957758     12.97347492     14.36837360
H             -11.56456538     12.84993211     15.38595780
H             -12.43772412     12.75288347     14.07702633
O               8.17300890      6.71965677     -5.12728347
H               8.01972678      7.35754039     -4.35099308
H               7.22113480      6.41377232     -5.35818424
O              18.00796344      2.22299876     -2.38544795
H              17.62604526      3.12252926     -2.17483325
H              17.80790812      1.68905015     -1.62189911
O               4.93893909      5.64342890      9.47127501
H               4.42598111      4.82459554      9.27397258
H               5.85481237      5.30463154      9.42407505
O             -16.21505258     14.06895917      4.37031171
H             -16.49630803     15.02138708      4.19863573
H             -15.51632911     14.28419972      5.07145942
O              11.70220963     -1.56753295      9.93320752
H              11.02085017     -1.62365838     10.59715847
H              11.97100246     -2.48268652      9.82056222
O               0.95394011     -4.46714742     13.74837480
H               0.75292948     -4.09997404     14.60036325
H               1.57988206     -5.24383444     13.93204381
O               2.06891663     15.77434144     -4.79250371
H               1.92707690     16.16384985     -5.65712876
H               1.80301014     16.42714196     -4.09879372
O             -18.31023689      4.34218844     15.25524350
H             -17.59392271      3.67488889     15.48088645
H             -18.69373142      4.01268651     14.35193041
O               0.76596931     -8.79859350      6.72518636
H               0.34799846     -8.98161936      5.87370974
H               1.36593526     -8.08682608      6.48746893
O              -6.52562941    -15.51851499      8.73463653
H              -6.16844402    -14.83640946      9.41312462
H              -7.26617226    -15.05672190      8.38092241
O              11.49907961     -7.35141385    -11.01473953
H              12.10795169     -7.57563298    -11.75618532
H              11.56938228     -8.11058130    -10.38435121
O               1.66199992     -0.97968699     12.85047648
H               1.90888437     -1.88114668     12.52689359
H               0.63429854     -0.93551307     12.81136898
O               4.34234512    -15.25324104     11.53913607
H               3.59486153    -15.79362930     11.91027184
H               4.93491744    -15.33884999     12.26525113
O              -5.83490266    -13.41479985     -5.50556252
H              -5.74104526    -12.43715284     -5.72387896
H              -6.54239381    -13.39417528     -4.79686772
O             -13.15665339     -7.79967800      0.86605791
H             -13.75204522     -8.15839350      1.56005522
H             -13.92711262     -7.53097090      0.32992046
O               1.93866513      6.15608396    -11.26267667
H               1.01987988      6.03418774    -11.41597772
H               2.20879035      6.71590857    -11.97542024
O               8.65451401     -1.90037028     17.38410333
H               8.60194797     -1.26013899    -17.11199071
H               9.11351144     -1.37330936     16.64130128
O              10.29238551    -10.64364212     14.39230632
H              10.39892948     -9.70210620     14.46703060
H               9.35262069    -10.69905388     14.06159070
O               3.30781744     -5.28909163    -13.73176740
H               2.72819811     -6.07914868    -13.56470578
H               2.67758242     -4.57301747    -13.49331608
O             -16.67659610    -15.41319541      6.18280716
H             -17.58049535    -15.59696445      5.85444042
H             -16.84187331    -15.45944047      7.11725103
O             -17.76569506    -15.01254128     -6.68790059
H             -17.16096936    -15.74817453     -6.63236532
H             -18.12337532    -15.08719670     -7.63098235
O               3.96146113     -1.95129803      9.89079870
H               3.30327119     -2.48702559     10.34245093
H               3.73391896     -1.89893532      8.94879073
O               9.96197389    -12.13865956      0.56633244
H              10.27706653    -11.80767085      1.43350552
H              10.76874480    -12.63784360      0.25908841
O              -5.30976974      5.26488825      6.34824856
H              -5.26917657      4.77111708      5.58201184
H              -4.35001556      5.53332329      6.35841849
O               0.59851293     -2.12071854    -14.32987105
H               0.30040707     -2.93555037    -14.74752061
H               1.27355009     -2.39037198    -13.71472837
O              12.63143222     -2.29359739     16.90767030
H              13.54466407     -2.00071092     16.83785867
H              12.12705610     -1.53264752     16.51202081
O              -1.02765830    -15.16385929      4.14038555
H              -1.55653043    -15.45988177      4.94744813
H              -0.23259043    -15.73459529      4.25516086
O              -3.24799906    -11.71659904     12.59018327
H              -3.98135071    -12.12751090     13.02811660
H              -3.47132901    -11.92858173     11.65319456
O             -19.11418916    -16.28081007     12.87459078
H              19.60498041    -16.02275834     12.54741876
H             -18.48348150    -15.81358177     12.30642468
O              15.01063191     10.83359999     -6.26425600
H              15.49098414     10.00324558     -6.44883421
H              14.14647210     10.43760359     -5.96669658
O               1.80951524    -10.37152299     15.88369403
H               1.69438811    -11.14935444     16.44418068
H               1.53389831     -9.65895538     16.49329792
O              16.23174625    -11.39458924    -15.80607808
H              16.73287976    -10.61500648    -15.52599236
H              16.64290997    -11.49587660    -16.67407668
O               9.64512053     13.43292542     14.35570330
H               9.68328245     14.27135155     14.78006413
H               9.49462261     13.80426474     13.42567886
O              -2.39028759     16.87972311      5.08290942
H              -2.69759090     17.67506562      5.50932348
H              -1.95775970     17.19304711      4.21100712
O              -2.97158733     -2.30338651     17.45138576
H              -3.55170069     -3.05222727     17.21186688
H              -3.33191613     -2.17998696    -16.88638443
O              12.01430321     -4.48170726      9.78234321
H              12.30139486     -5.39101479      9.58803809
H              11.03551941     -4.45295461     10.00211945
O               8.49898206     11.74776759      5.06033297
H               9.31066314     12.27382181      4.74715399
H               7.87609327     11.79999035      4.30787117
O             -14.90537172     -8.71405077     -8.30054171
H             -13.92271967     -8.76986596     -8.19793319
H             -15.19821004     -9.58517561     -8.20741819
O               5.17190491      9.81804180    -16.68196571
H               6.07915604      9.73924051    -17.17747817
H               4.90904366      8.88254311    -16.58976884
O             -17.52808120     -7.38291382     -3.80766626
H             -17.39614785     -8.33606261     -3.86784772
H             -18.43185573     -7.26842421     -4.09879588
O             -13.12381724      3.21591021    -13.08581998
H             -14.06428520      3.28549747    -13.33586542
H             -12.99207709      2.24093321    -13.05151548
O               2.42835948    -17.01965876     10.54011923
H               2.25133567    -16.52578513      9.70568133
H               1.61323401    -17.57242702     10.77531610
O              15.48765693     -1.98916025     16.45547978
H              16.02769778     -2.66749663     16.85801778
H              15.19074837     -2.46051493     15.62292380
O              -9.68325726     15.85431282     16.24513300
H              -8.72990332     15.78586457     16.54508326
H              -9.79637118     16.76391494     16.34177018
O               5.46488185      9.50807048      8.83226445
H               4.94023089      8.78453765      8.42381026
H               6.00803190      9.88908927      8.06431922
O              18.40317096      1.92552181     -7.98338817
H              18.21239256      2.21031331     -8.92344046
H              17.85501934      2.54376676     -7.52442652
O              16.02216475     -2.38987194     -4.97524149
H              15.97847068     -3.02159653     -4.25270543
H              15.25815806     -2.71494302     -5.51430570
O             -18.18775815      7.12839940     -5.41039730
H             -19.00077730      7.61162972     -5.19485269
H             -17.62565838      7.26289728     -4.58395999
O             -14.67549944     11.04993123      7.46514608
H             -13.74389084     10.83682272      7.64376839
H             -15.05612420     10.56871407      8.21396324
O             -13.39104341     17.42625292      1.66781179
H             -13.24162966     16.51805207      1.34996015
H             -12.61251582    -17.56710235      1.41282366
O             -19.59107909    -10.36343456     -8.73672428
H             -19.41425351    -11.13723037     -9.37082825
H             -19.08222253     -9.60634682     -9.14249721
O              19.51989627     -5.27307498    -15.77682442
H              19.71430941     -4.42094522    -16.17703599
H             -19.76314187     -5.93688737    -16.49654403
O             -11.18767734     -4.85365930    -10.33670779
H             -11.42178285     -4.98771097     -9.39313251
H             -10.24624393     -4.60707937    -10.09946661
O              17.30501316     -8.14331278     16.40009433
H              17.92144468     -8.60050390     17.05326108
H              17.35060152     -8.68493456     15.62325814
O             -10.33989366     12.26484162     11.48413284
H              -9.58544225     11.96467691     11.99058992
H             -10.52707828     13.15932476     11.84517278
O               6.67222573      7.85388838    -13.84925568
H               6.76137528      7.57907377    -14.75778713
H               6.86917323      8.75781388    -13.95002502
O              10.03125727     -0.05497798      8.02212981
H              10.00570574     -0.85263934      7.41816576
H              10.61085986     -0.49990613      8.65633199
O              16.95623528    -14.20387639     16.92505119
H              16.76754765    -13.24882140     16.74937195
H              17.19618830    -14.17027330    -17.32950536
O              -1.00977792     -7.16689008    -11.59459755
H              -0.76117868     -7.98274799    -11.21487559
H              -1.94532885     -7.32428575    -11.84996683
O               3.68616367     -7.52046110     -1.16590317
H               3.93799791     -7.86915940     -2.06047786
H               2.77279428     -7.83849684     -0.95387802
O              -2.03729673     12.89621237     -1.54151799
H              -1.20182121     13.24424857     -1.25445544
H              -1.73620042     12.54927817     -2.36777793
O              -7.09682573     11.64692872     14.71609403
H              -7.61932542     12.43239839     14.62057630
H              -6.34897716     12.01841577     15.19677865
O             -16.94037193     -5.41109744      5.92133176
H             -17.89451785     -5.24865956      5.74375320
H             -16.73911207     -5.81503778      5.05452117
O              -3.67905172     -8.28464801    -11.52248117
H              -4.45123212     -7.71862970    -11.34454517
H              -3.86443345     -9.03445929    -10.98762040
O              10.08894415      4.69307731      9.79462736
H              10.02441099      4.69967207      8.86091725
H              11.05333531      4.77644758     10.04268083
O              11.41482447     10.33276301     -1.90224107
H              11.92194946      9.49741849     -2.12778839
H              11.91678090     10.76384307     -1.23162369
O               4.59927045      4.21916083     -7.14226043
H               5.14984289      3.99763008     -7.89696314
H               3.66607744      3.96231539     -7.39832157
O              -6.58336956      9.76056269     17.18212013
H              -6.40476362      9.79840650     16.21993781
H              -6.08746532      8.98867768     17.37763575
O               0.52563779     15.62506991    -10.46048092
H              -0.23667315     15.77061361    -11.09844769
H               0.38147803     14.69205907    -10.31115917
O             -16.73550537    -12.50455290     -6.56986079
H             -17.01832754    -13.35005115     -6.24234925
H             -17.38080508    -11.86153492     -6.16158547
O              14.61628692     -8.08409349      0.91678007
H              14.49888720     -7.11551364      0.84907163
H              15.13263662     -8.20762181      1.79552851
O              17.90548104     -2.25260234      6.91938795
H              18.56711968     -2.27820176      7.59764613
H              17.20746706     -1.71194515      7.29682662
O              -0.28671170      6.93472511    -13.52134164
H              -0.66682421      6.16714147    -13.13662656
H               0.58522495      6.65425358    -13.70382628
O               2.66487329      7.84619490     15.54401213
H               1.94947274      7.38426680     15.09810794
H               3.20791151      7.96483898     14.72593232
O              -5.21832177     10.73217571    -11.89152219
H              -4.32478002     11.16065625    -12.06548884
H              -5.67466109     11.09671615    -12.71769803
O              17.42576188     -3.71520808    -12.12564356
H              16.50731905     -3.63238660    -12.04491897
H              17.45730985     -4.69022985    -12.18148219
O              -3.11715707    -11.37398389      0.61735666
H              -3.98146145    -11.02175921      0.77945859
H              -3.21264093    -11.74136010     -0.27538413
O               2.39841906      4.07971629    -15.40471243
H               3.19497412      4.24361019    -16.00057778
H               2.54908222      4.76946627    -14.74535887
O               4.77272887      4.80435480    -16.73139160
H               4.93133147      4.24755291    -17.50969933
H               5.43419702      4.58454211    -16.05905950
O             -18.60882604     -5.50131956    -13.54917338
H             -18.74028675     -6.49663523    -13.45541027
H             -19.29710351     -5.35722889    -14.16589400
O             -18.49142281     12.29768004    -15.37678650
H             -19.14480449     12.74145826    -16.01678143
H             -18.42617535     11.49976671    -15.91714181
O             -10.25521057    -13.98733336     -9.17251511
H             -10.61986339    -13.95084514     -8.22221200
H             -11.01744793    -14.45270436     -9.59398122
O              -3.00629556     15.11703419    -10.61500673
H              -3.94373082     15.35244215    -10.44519495
H              -2.52860232     15.97993746    -10.44556211
O              -2.08026067     -7.60282167     -1.75031493
H              -2.86128717     -7.23398595     -2.22348182
H              -2.11156312     -7.12494603     -0.94188172
O             -13.73567838     16.50990200    -16.83520748
H             -14.05355486     16.15470169    -15.99573919
H             -14.00704919     15.84223665    -17.50014268
O              -4.17376944     -4.57373771      3.86020018
H              -5.07982183     -4.53991700      4.02115665
H              -3.74304730     -4.32000378      4.70043606
O              -3.58420246      4.95057347     -2.68560280
H              -2.59376106      4.92760875     -2.69529038
H              -3.81679528      5.01732682     -3.65238548
O             -14.93636837    -10.24183423      0.86916648
H             -15.36916557    -11.12567343      1.05560930
H             -15.66678949     -9.61553005      1.11736639
O             -10.09535132      2.55768526    -10.75641545
H             -11.09950874      2.65798340    -10.79271860
H              -9.89396816      3.40677637    -11.26873238
O              -9.54409811     -9.08715227      5.30628315
H              -9.27491933     -9.90883155      4.76084736
H             -10.07903386     -9.49994320      6.05044945
O              15.67349002      8.43575528    -14.99585763
H              15.05448869      8.16289753    -15.68774264
H              15.09295659      8.85708420    -14.30784200
O             -12.69673033    -10.31202662      4.19852673
H             -12.39108937    -11.03625949      4.79512474
H             -13.62648173    -10.16052334      4.49755725
O              -9.40781096      5.13494253    -11.68875470
H              -9.15259632      5.46655037    -10.77890702
H             -10.11370021      5.73914985    -11.95074239
O              17.27104862     11.00615730     -8.33322555
H              17.43235110     11.93156977     -8.06202395
H              16.31492285     11.09511461     -8.46822489
O             -10.48237484    -15.42208446     14.34829437
H             -10.77630176    -14.50235211     14.25489648
H              -9.53499208    -15.29589668     14.52380798
O              -7.61690886      8.35826843     10.78937703
H              -7.91436865      9.27238224     10.43649799
H              -7.06011919      8.48282920     11.51726943
O             -16.51661982     -0.62871962     -1.23010624
H             -17.42325040     -0.42096073     -1.41050157
H             -16.52412234     -1.59647105     -1.25785459
O               2.95305148    -11.18734987    -10.71519377
H               3.13911049    -11.25456078     -9.76058982
H               3.74522910    -10.71972044    -11.00517258
O               0.89164508    -15.29567911     -8.00919981
H               0.24044269    -15.65541148     -8.63001011
H               0.38248874    -14.97740161     -7.22105167
O              -0.34879070     11.29229638     -6.80498970
H              -0.80836552     10.48996869     -6.54453577
H              -1.04914618     11.69239638     -7.29938741
O              -1.58637737      2.13763517     11.16929786
H              -0.65591717      1.95765829     11.28539542
H              -1.61375176      2.93653141     11.66310182
O             -14.57687250     -4.01994824    -12.92918113
H             -13.88275658     -4.67567165    -12.99750018
H             -15.24675620     -4.67875892    -12.73557298
O              -6.21514953      5.49183291     17.19866653
H              -5.66198085      5.96654468     16.57751270
H              -5.74513857      4.67950049     17.44228531
O              11.34237767      8.18816788     16.82259487
H              10.92161067      8.63826106     16.14705829
H              11.68901432      7.43315176     16.39355942
O             -10.29916055     -1.01311200     -0.80975568
H              -9.46517879     -1.29167143     -0.41993923
H             -10.29299792     -1.66332977     -1.56474015
O               8.66345106      5.22849465      3.19892788
H               9.41392186      5.74946261      2.78688667
H               8.15518533      5.94131628      3.56076923
O             -15.17618029     14.74097857     16.84010571
H             -15.10055997     13.80554186     16.97457154
H             -16.09887986     14.85557226     17.01977508
O               1.85649071      6.60019116      5.34108055
H               2.37631688      5.82043072      4.97227114
H               1.91924676      6.22176907      6.29877505
O               4.79249477     15.81434066     13.94186705
H               4.71944384     16.06664803     13.01415237
H               5.48312051     15.11981015     13.94306477
O              -6.74671891      0.26171411     -8.65629778
H              -7.12224314     -0.59148106     -8.46245262
H              -7.12543316      0.41532120     -9.51415714
O               9.42652711    -12.72326446     -3.68105177
H               9.00715935    -12.05266627     -3.04228947
H              10.34268930    -12.40511682     -3.77687110
O              -9.60060008     15.04299837      7.37643154
H             -10.44922772     15.37475135      7.04892417
H              -9.08459132     15.78408555      6.94911006
O               5.70496199     13.32833239     -7.74592109
H               5.29371938     14.07796374     -7.29769784
H               5.94006646     13.60595844     -8.64643315
O               9.98142778    -16.89834959    -10.90085861
H               9.80863150    -17.12746805    -11.86622566
H              10.76270291    -16.26859481    -10.89606484
O               3.68856502    -14.44456367     -6.66204607
H               2.84059616    -14.13180466     -6.23396303
H               3.90207741    -13.66289376     -7.22496625
O             -10.06433857     -7.47325639     14.11114220
H              -9.10724389     -7.50949117     13.78079406
H             -10.34841545     -6.66023193     13.60853245
O               6.92380552    -10.17878481     -5.96879850
H               6.69719727     -9.28875768     -6.00853740
H               6.00594270    -10.57243179     -5.83039511
O              -9.48469717      2.88659563     11.24211877
H              -9.37291084      3.75022777     11.55631895
H              -8.53358665      2.67261981     11.08916757
O             -10.88446907      9.98493653      2.11915549
H             -10.72204611      9.05853959      2.37333408
H             -10.76477182      9.92024672      1.13273349
O              11.57461211      4.07958017     -1.45697840
H              10.79933972      3.62634729     -1.01438253
H              11.19964030      4.06560589     -2.40055473
O              11.13326925     -7.65923719     15.10958361
H              11.22709811     -7.43908342     16.03462454
H              10.27717782     -7.21580297     14.81970363
O              -7.91453646     16.47834034     -8.88436974
H              -7.82988497     15.52360855     -8.73562034
H              -7.18819316     16.74994476     -8.29060881
O             -19.60300605    -11.60873568      0.56406898
H             -19.17198470    -10.75633925      0.69741015
H              19.08105853    -11.43291562      0.78650963
O              -1.02504808      7.27095418    -16.15775934
H              -0.27376472      7.88556179    -16.44960722
H              -0.86037356      7.29753685    -15.16635164
O             -11.19223125     15.96966375     -1.03288139
H             -10.42987345     15.81099876     -1.64647783
H             -10.99186703     16.79238643     -0.56620166
O              -8.40645795     -0.26227749      1.66585493
H              -8.04439666     -0.45684394      0.80318934
H              -7.55466154      0.22168468      1.96045800
O              -9.36550135     -4.65197298     13.22627281
H              -9.00038062     -4.28858396     12.39246051
H             -10.19588367     -4.18906051     13.19180513
O               4.26577523      0.97633107     -0.28105432
H               3.78639368      0.59269069      0.56479701
H               4.98824054      0.26816525     -0.37567756
O              13.21019570     10.77243902      2.86683601
H              13.83936872     10.13391921      3.30571152
H              13.75160255     11.60161905      2.88931332
O             -18.89220324      0.62545513     -1.62812586
H             -19.50435917      0.66637622     -0.83289740
H             -18.24356556      1.36363357     -1.46063340
O               8.09775411     -5.98810537      3.61323619
H               8.29399829     -6.92322972      3.56178935
H               8.81563029     -5.65313252      4.14787126
O             -10.38578043      4.87436979      2.70792310
H             -10.50179063      4.70245167      3.73228721
H              -9.45863983      4.72602879      2.58381424
O               5.62693073    -16.61326621     -3.54206927
H               6.39322110    -16.51835617     -4.03009400
H               4.99334245    -16.85598008     -4.23906145
O              15.22421936     -3.03042095      4.14913485
H              15.22709021     -2.81364866      3.16984006
H              16.12433433     -3.37517972      4.23514481
O               3.46800970      3.28429406      9.40691149
H               3.35646374      3.07324928      8.52643288
H               3.93007938      2.48127542      9.82219884
O               8.19275521    -15.23566592     -3.19937989
H               7.74963957    -14.83412136     -4.00382857
H               8.75054557    -14.49710784     -3.06697999
O               1.99106374      6.60480731     13.16434577
H               1.05914273      6.91631148     13.25455714
H               1.92695232      5.96608209     12.43598434
O               5.37311469     15.90770752     -6.36321264
H               4.88373110     16.07714163     -5.52761669
H               6.13057645     16.53397889     -6.29644157
O              13.52240556     -5.94196651     -4.06345120
H              12.87492138     -6.67848544     -3.98412349
H              13.02996852     -5.23501511     -4.51884951
O             -12.51065779     -1.64860300     10.12098728
H             -12.05476450     -1.07720959      9.44997436
H             -12.93558499     -2.35062119      9.59869098
O              -8.98701017     13.77165446      1.36695764
H              -8.39837304     14.34658190      0.91938231
H              -9.04862807     12.93227022      0.78260775
O              17.37044683      5.35302508     12.52292926
H              17.12659412      6.25140621     12.25480348
H              18.04360711      5.16723891     11.87644445
O             -13.10902915      4.52053036     11.05946239
H             -12.92681433      3.95947046     11.82019807
H             -13.34024540      3.91732515     10.35604305
O              16.60669308    -11.64469121     16.51190443
H              15.81904320    -11.03991226     16.63895588
H              16.95809869    -11.23226282     15.66945452
O               2.29145646     -7.02741843     13.75162039
H               2.01698348     -7.56960669     12.94823485
H               3.26378372     -7.00202369     13.65379633
O             -15.88837412    -15.81581720     -3.59694990
H             -15.01663580    -15.74864487     -3.24314034
H             -15.91958766    -16.81390634     -3.60152879
O             -14.32796646    -16.91933089     12.24844537
H             -13.48168624    -17.37878143     12.43692507
H             -14.84113076     17.68223708     11.97491950
O              17.29488778     -6.51681873    -12.25999560
H              18.19379131     -6.78097859    -11.92876672
H              17.43320250     -6.77472838    -13.13663603
O              -7.43664908     -0.47884548    -14.76112672
H              -6.93315590     -0.07235081    -15.42473371
H              -7.33616255      0.21063028    -14.08820575
O              17.91572594     15.02584729     -4.80653894
H              17.30854359     14.26295214     -4.57032123
H              17.73067567     15.57001347     -4.03594272