3600
C44=0.35215345 OrigWidth=198.43724865 strain=0.08425590 nneightol=1.30000000 G=0.31207532 YoungsModulus=0.89115452 LatticeConstant=5.43094978 K=0.10898755 CleavagePlane="1       1       1" CrackPos="-30.60517311      0.08401117      0.00000000" CrackFront="0       1      -1" SurfaceEnergy=0.08485490 PoissonRatio_yx=0.26529291 is_cracked=F CrackDirection="-2       1       1" OrigHeight=91.71513926 C12=0.47690120 C11=0.94463734 sigma0="-0.00056678      0.00537025     -0.00000890" cutoff_factor=1.20000000 Lattice="398.43724865       0.00000000       0.00000000       0.00000000     291.71513926       0.00000000       0.00000000       0.00000000       3.84026142" Properties=species:S:1:pos:R:3:avg_sigma:R:9:Z:I:1
Si            -99.21862433    -48.93745050      0.00000000     -0.00000000      0.00000000     -0.00000000      0.00000000     -0.00000000      0.00000000     -0.00000000      0.00000000     -0.00000000      14
Si            -99.21862433    -46.58578027      3.84026142     -0.00000000     -0.00000000     -0.00000000     -0.00000000     -0.00000000     -0.00000000     -0.00000000     -0.00000000      0.00000000      14
Si            -97.00144836    -45.80189019      3.84026142     -0.00000000      0.00000000      0.00000000      0.00000000     -0.00000000     -0.00000000      0.00000000     -0.00000000     -0.00000000      14
Si            -97.00144836    -43.45021995      3.84026142     -0.00000000     -0.00000000     -0.00000000     -0.00000000     -0.00000000     -0.00000000     -0.00000000     -0.00000000     -0.00000000      14
Si            -98.11003634    -42.66632987      1.92013071     -0.00000000      0.00000000      0.00000000      0.00000000     -0.00000000      0.00000000      0.00000000      0.00000000     -0.00000000      14
Si            -98.11003634    -49.72134058      1.92013071     -0.00000000      0.00000000     -0.00000000      0.00000000     -0.00000000      0.00000000     -0.00000000      0.00000000     -0.00000000      14
Si            -95.89286038    -48.93745050      1.92013071     -0.00000000     -0.00000000     -0.00000000     -0.00000000     -0.00000000      0.00000000     -0.00000000      0.00000000     -0.00000000      14
Si            -95.89286038    -46.58578027      1.92013071     -0.00000000     -0.00000000     -0.00000000     -0.00000000     -0.00000000     -0.00000000     -0.00000000     -0.00000000     -0.00000000      14
Si            -94.78427240    -42.66632987      3.84026142     -0.00000000      0.00000000      0.00000000      0.00000000     -0.00000000      0.00000000      0.00000000      0.00000000     -0.00000000      14
Si            -94.78427240    -49.72134058      0.00000000     -0.00000000      0.00000000     -0.00000000      0.00000000     -0.00000000      0.00000000     -0.00000000      0.00000000     -0.00000000      14
Si            -93.67568442    -45.80189019      1.92013071     -0.00000000      0.00000000      0.00000000      0.00000000     -0.00000000     -0.00000000      0.00000000     -0.00000000     -0.00000000      14
Si            -93.67568442    -43.45021995      1.92013071     -0.00000000     -0.00000000      0.00000000     -0.00000000     -0.00000000     -0.00000000      0.00000000     -0.00000000     -0.00000000      14
Si            -99.21862433    -39.53076955     -0.00000000     -0.00000000      0.00000000     -0.00000000      0.00000000     -0.00000000      0.00000000     -0.00000000      0.00000000     -0.00000000      14
Si            -99.21862433    -37.17909932      3.84026142     -0.00000000     -0.00000000     -0.00000000     -0.00000000     -0.00000000     -0.00000000     -0.00000000     -0.00000000     -0.00000000      14
Si            -97.00144836    -36.39520924      3.84026142     -0.00000000      0.00000000      0.00000000      0.00000000     -0.00000000     -0.00000000      0.00000000     -0.00000000     -0.00000000      14
Si            -97.00144836    -34.04353900      3.84026142     -0.00000000     -0.00000000     -0.00000000     -0.00000000     -0.00000000     -0.00000000     -0.00000000     -0.00000000     -0.00000000      14
Si            -98.11003634    -33.25964892      1.92013071     -0.00000000      0.00000000      0.00000000      0.00000000     -0.00000000      0.00000000      0.00000000      0.00000000     -0.00000000      14
Si            -98.11003634    -40.31465963      1.92013071     -0.00000000     -0.00000000     -0.00000000     -0.00000000     -0.00000000      0.00000000     -0.00000000      0.00000000     -0.00000000      14
Si            -95.89286038    -39.53076955      1.92013071     -0.00000000      0.00000000     -0.00000000      0.00000000     -0.00000000      0.00000000     -0.00000000      0.00000000     -0.00000000      14
Si            -95.89286038    -37.17909932      1.92013071     -0.00000000     -0.00000000      0.00000000     -0.00000000     -0.00000000     -0.00000000      0.00000000     -0.00000000     -0.00000000      14
Si            -94.78427240    -33.25964892      3.84026142     -0.00000000      0.00000000      0.00000000      0.00000000     -0.00000000      0.00000000      0.00000000      0.00000000     -0.00000000      14
Si            -94.78427240    -40.31465963     -0.00000000     -0.00000000     -0.00000000      0.00000000     -0.00000000     -0.00000000      0.00000000      0.00000000      0.00000000     -0.00000000      14
Si            -93.67568442    -36.39520924      1.92013071     -0.00000000      0.00000000      0.00000000      0.00000000     -0.00000000     -0.00000000      0.00000000     -0.00000000     -0.00000000      14
Si            -93.67568442    -34.04353900      1.92013071     -0.00000000     -0.00000000      0.00000000     -0.00000000     -0.00000000      0.00000000      0.00000000      0.00000000     -0.00000000      14
Si            -99.21862433    -30.12408860     -0.00000000     -0.00000000      0.00000000     -0.00000000      0.00000000     -0.00000000      0.00000000     -0.00000000      0.00000000     -0.00000000      14
Si            -99.21862433    -27.77241837      3.84026142     -0.00000000     -0.00000000     -0.00000000     -0.00000000     -0.00000000     -0.00000000     -0.00000000     -0.00000000     -0.00000000      14
Si            -97.00144836    -26.98852829      3.84026142     -0.00000000      0.00000000      0.00000000      0.00000000     -0.00000000     -0.00000000      0.00000000     -0.00000000     -0.00000000      14
Si            -97.00144836    -24.63685805      3.84026142     -0.00000000     -0.00000000     -0.00000000     -0.00000000     -0.00000000      0.00000000     -0.00000000      0.00000000     -0.00000000      14
Si            -98.11003634    -23.85296797      1.92013071     -0.00000000      0.00000000      0.00000000      0.00000000     -0.00000000      0.00000000      0.00000000      0.00000000     -0.00000000      14
Si            -98.11003634    -30.90797868      1.92013071     -0.00000000     -0.00000000      0.00000000     -0.00000000     -0.00000000      0.00000000      0.00000000      0.00000000     -0.00000000      14
Si            -95.89286038    -30.12408860      1.92013071     -0.00000000      0.00000000     -0.00000000      0.00000000     -0.00000000      0.00000000     -0.00000000      0.00000000     -0.00000000      14
Si            -95.89286038    -27.77241837      1.92013071     -0.00000000     -0.00000000      0.00000000     -0.00000000     -0.00000000     -0.00000000      0.00000000     -0.00000000     -0.00000000      14
Si            -94.78427240    -23.85296797      3.84026142     -0.00000000      0.00000000      0.00000000      0.00000000     -0.00000000     -0.00000000      0.00000000     -0.00000000     -0.00000000      14
Si            -94.78427240    -30.90797868     -0.00000000     -0.00000000     -0.00000000     -0.00000000     -0.00000000     -0.00000000      0.00000000     -0.00000000      0.00000000     -0.00000000      14
Si            -93.67568442    -26.98852829      1.92013071     -0.00000000      0.00000000      0.00000000      0.00000000     -0.00000000     -0.00000000      0.00000000     -0.00000000     -0.00000000      14
Si            -93.67568442    -24.63685805      1.92013071     -0.00000000     -0.00000000      0.00000000     -0.00000000     -0.00000000     -0.00000000      0.00000000     -0.00000000     -0.00000000      14
Si            -99.21862433    -20.71740766     -0.00000000     -0.00000000      0.00000000      0.00000000      0.00000000     -0.00000000     -0.00000000      0.00000000     -0.00000000     -0.00000000      14
Si            -99.21862433    -18.36573742      3.84026142     -0.00000000     -0.00000000     -0.00000000     -0.00000000     -0.00000000     -0.00000000     -0.00000000     -0.00000000     -0.00000000      14
Si            -97.00144836    -17.58184734      3.84026142     -0.00000000      0.00000000      0.00000000      0.00000000     -0.00000000     -0.00000000      0.00000000     -0.00000000     -0.00000000      14
Si            -97.00144836    -15.23017710      3.84026142     -0.00000000     -0.00000000     -0.00000000     -0.00000000     -0.00000000     -0.00000000     -0.00000000      0.00000000     -0.00000000      14
Si            -98.11003634    -14.44628702      1.92013071     -0.00000000      0.00000000      0.00000000      0.00000000     -0.00000000      0.00000000      0.00000000      0.00000000     -0.00000000      14
Si            -98.11003634    -21.50129773      1.92013071     -0.00000000     -0.00000000      0.00000000     -0.00000000     -0.00000000     -0.00000000      0.00000000     -0.00000000     -0.00000000      14
Si            -95.89286038    -20.71740766      1.92013071     -0.00000000      0.00000000     -0.00000000      0.00000000     -0.00000000      0.00000000     -0.00000000      0.00000000     -0.00000000      14
Si            -95.89286038    -18.36573742      1.92013071     -0.00000000     -0.00000000      0.00000000     -0.00000000     -0.00000000     -0.00000000      0.00000000     -0.00000000     -0.00000000      14
Si            -94.78427240    -14.44628702      3.84026142     -0.00000000      0.00000000      0.00000000      0.00000000     -0.00000000      0.00000000      0.00000000      0.00000000     -0.00000000      14
Si            -94.78427240    -21.50129773      0.00000000     -0.00000000     -0.00000000      0.00000000     -0.00000000     -0.00000000      0.00000000      0.00000000      0.00000000     -0.00000000      14
Si            -93.67568442    -17.58184734      1.92013071     -0.00000000      0.00000000      0.00000000      0.00000000     -0.00000000     -0.00000000      0.00000000     -0.00000000     -0.00000000      14
Si            -93.67568442    -15.23017710      1.92013071     -0.00000000     -0.00000000      0.00000000     -0.00000000     -0.00000000     -0.00000000      0.00000000     -0.00000000     -0.00000000      14
Si            -99.21862433    -11.31072671     -0.00000000     -0.00000000      0.00000000     -0.00000000      0.00000000     -0.00000000      0.00000000     -0.00000000      0.00000000     -0.00000000      14
Si            -99.21862433     -8.95905647      3.84026142     -0.00000000     -0.00000000     -0.00000000     -0.00000000     -0.00000000     -0.00000000     -0.00000000     -0.00000000     -0.00000000      14
Si            -97.00144836     -8.17516639      3.84026142     -0.00000000      0.00000000     -0.00000000      0.00000000     -0.00000000      0.00000000     -0.00000000      0.00000000     -0.00000000      14
Si            -97.00144836     -5.82349615      3.84026142     -0.00000000      0.00000000     -0.00000000      0.00000000     -0.00000000      0.00000000     -0.00000000      0.00000000     -0.00000000      14
Si            -98.11003634     -5.03960607      1.92013071     -0.00000000      0.00000000     -0.00000000      0.00000000     -0.00000000      0.00000000     -0.00000000      0.00000000     -0.00000000      14
Si            -98.11003634    -12.09461678      1.92013071     -0.00000000     -0.00000000     -0.00000000     -0.00000000     -0.00000000      0.00000000     -0.00000000      0.00000000     -0.00000000      14
Si            -95.89286038    -11.31072671      1.92013071     -0.00000000      0.00000000      0.00000000      0.00000000     -0.00000000     -0.00000000      0.00000000     -0.00000000     -0.00000000      14
Si            -95.89286038     -8.95905647      1.92013071     -0.00000000     -0.00000000     -0.00000000     -0.00000000     -0.00000000      0.00000000     -0.00000000      0.00000000     -0.00000000      14
Si            -94.78427240     -5.03960607      3.84026142     -0.00000000      0.00000000     -0.00000000      0.00000000     -0.00000000     -0.00000000     -0.00000000     -0.00000000     -0.00000000      14
Si            -94.78427240    -12.09461678     -0.00000000     -0.00000000     -0.00000000      0.00000000     -0.00000000     -0.00000000      0.00000000      0.00000000      0.00000000     -0.00000000      14
Si            -93.67568442     -8.17516639      1.92013071     -0.00000000      0.00000000      0.00000000      0.00000000     -0.00000000     -0.00000000      0.00000000     -0.00000000     -0.00000000      14
Si            -93.67568442     -5.82349615      1.92013071     -0.00000000     -0.00000000      0.00000000     -0.00000000     -0.00000000     -0.00000000      0.00000000     -0.00000000     -0.00000000      14
Si            -99.21862433      5.82349615     -0.00000000      0.00000000     -0.00000000      0.00000000     -0.00000000      0.00000000     -0.00000000      0.00000000     -0.00000000     -0.00000000      14
Si            -99.21862433      8.17516639      3.84026142     -0.00000000     -0.00000000     -0.00000000     -0.00000000      0.00000000     -0.00000000     -0.00000000     -0.00000000     -0.00000000      14
Si            -97.00144836      8.95905647      3.84026142     -0.00000000      0.00000000     -0.00000000      0.00000000     -0.00000000      0.00000000     -0.00000000      0.00000000     -0.00000000      14
Si            -97.00144836     11.31072671      3.84026142     -0.00000000     -0.00000000     -0.00000000     -0.00000000     -0.00000000     -0.00000000     -0.00000000     -0.00000000     -0.00000000      14
Si            -98.11003634     12.09461678      1.92013071     -0.00000000      0.00000000      0.00000000      0.00000000     -0.00000000      0.00000000      0.00000000      0.00000000     -0.00000000      14
Si            -98.11003634      5.03960607      1.92013071     -0.00000000     -0.00000000      0.00000000     -0.00000000     -0.00000000     -0.00000000      0.00000000     -0.00000000     -0.00000000      14
Si            -95.89286038      5.82349615      1.92013071     -0.00000000      0.00000000      0.00000000      0.00000000     -0.00000000     -0.00000000      0.00000000     -0.00000000     -0.00000000      14
Si            -95.89286038      8.17516639      1.92013071     -0.00000000     -0.00000000     -0.00000000     -0.00000000     -0.00000000      0.00000000     -0.00000000      0.00000000     -0.00000000      14
Si            -94.78427240     12.09461678      3.84026142     -0.00000000      0.00000000     -0.00000000      0.00000000     -0.00000000     -0.00000000     -0.00000000     -0.00000000     -0.00000000      14
Si            -94.78427240      5.03960607     -0.00000000     -0.00000000     -0.00000000      0.00000000     -0.00000000     -0.00000000     -0.00000000      0.00000000     -0.00000000     -0.00000000      14
Si            -93.67568442      8.95905647      1.92013071     -0.00000000      0.00000000      0.00000000      0.00000000     -0.00000000     -0.00000000      0.00000000     -0.00000000     -0.00000000      14
Si            -93.67568442     11.31072671      1.92013071     -0.00000000     -0.00000000      0.00000000     -0.00000000     -0.00000000      0.00000000      0.00000000      0.00000000     -0.00000000      14
Si            -99.21862433     15.23017710     -0.00000000     -0.00000000      0.00000000      0.00000000      0.00000000     -0.00000000     -0.00000000      0.00000000     -0.00000000     -0.00000000      14
Si            -99.21862433     17.58184734      3.84026142     -0.00000000     -0.00000000     -0.00000000     -0.00000000     -0.00000000     -0.00000000     -0.00000000     -0.00000000     -0.00000000      14
Si            -97.00144836     18.36573742      3.84026142     -0.00000000      0.00000000      0.00000000      0.00000000     -0.00000000     -0.00000000      0.00000000     -0.00000000     -0.00000000      14
Si            -97.00144836     20.71740766      3.84026142     -0.00000000     -0.00000000     -0.00000000     -0.00000000     -0.00000000      0.00000000     -0.00000000      0.00000000     -0.00000000      14
Si            -98.11003634     21.50129773      1.92013071     -0.00000000      0.00000000      0.00000000      0.00000000     -0.00000000      0.00000000      0.00000000      0.00000000     -0.00000000      14
Si            -98.11003634     14.44628702      1.92013071     -0.00000000     -0.00000000      0.00000000     -0.00000000     -0.00000000     -0.00000000      0.00000000     -0.00000000     -0.00000000      14
Si            -95.89286038     15.23017710      1.92013071     -0.00000000      0.00000000     -0.00000000      0.00000000     -0.00000000      0.00000000     -0.00000000      0.00000000     -0.00000000      14
Si            -95.89286038     17.58184734      1.92013071     -0.00000000     -0.00000000      0.00000000     -0.00000000     -0.00000000     -0.00000000      0.00000000     -0.00000000     -0.00000000      14
Si            -94.78427240     21.50129773      3.84026142     -0.00000000      0.00000000      0.00000000      0.00000000     -0.00000000      0.00000000      0.00000000      0.00000000     -0.00000000      14
Si            -94.78427240     14.44628702     -0.00000000     -0.00000000     -0.00000000      0.00000000     -0.00000000     -0.00000000      0.00000000      0.00000000      0.00000000     -0.00000000      14
Si            -93.67568442     18.36573742      1.92013071     -0.00000000      0.00000000      0.00000000      0.00000000     -0.00000000     -0.00000000      0.00000000     -0.00000000     -0.00000000      14
Si            -93.67568442     20.71740766      1.92013071     -0.00000000     -0.00000000     -0.00000000     -0.00000000     -0.00000000     -0.00000000     -0.00000000     -0.00000000     -0.00000000      14
Si            -99.21862433     24.63685805     -0.00000000     -0.00000000      0.00000000     -0.00000000      0.00000000     -0.00000000     -0.00000000     -0.00000000     -0.00000000     -0.00000000      14
Si            -99.21862433     26.98852829      3.84026142     -0.00000000     -0.00000000      0.00000000     -0.00000000     -0.00000000      0.00000000      0.00000000      0.00000000     -0.00000000      14
Si            -97.00144836     27.77241837      3.84026142     -0.00000000      0.00000000      0.00000000      0.00000000     -0.00000000     -0.00000000      0.00000000     -0.00000000     -0.00000000      14
Si            -97.00144836     30.12408860      3.84026142     -0.00000000     -0.00000000      0.00000000     -0.00000000     -0.00000000      0.00000000      0.00000000      0.00000000     -0.00000000      14
Si            -98.11003634     30.90797868      1.92013071     -0.00000000      0.00000000      0.00000000      0.00000000     -0.00000000      0.00000000      0.00000000      0.00000000     -0.00000000      14
Si            -98.11003634     23.85296797      1.92013071     -0.00000000     -0.00000000     -0.00000000     -0.00000000     -0.00000000      0.00000000     -0.00000000      0.00000000     -0.00000000      14
Si            -95.89286038     24.63685805      1.92013071     -0.00000000      0.00000000     -0.00000000      0.00000000     -0.00000000      0.00000000     -0.00000000      0.00000000     -0.00000000      14
Si            -95.89286038     26.98852829      1.92013071     -0.00000000     -0.00000000      0.00000000     -0.00000000     -0.00000000     -0.00000000      0.00000000     -0.00000000     -0.00000000      14
Si            -94.78427240     30.90797868      3.84026142     -0.00000000      0.00000000     -0.00000000      0.00000000     -0.00000000      0.00000000     -0.00000000      0.00000000     -0.00000000      14
Si            -94.78427240     23.85296797     -0.00000000     -0.00000000     -0.00000000     -0.00000000     -0.00000000     -0.00000000      0.00000000     -0.00000000      0.00000000     -0.00000000      14
Si            -93.67568442     27.77241837      1.92013071     -0.00000000      0.00000000      0.00000000      0.00000000     -0.00000000     -0.00000000      0.00000000     -0.00000000     -0.00000000      14
Si            -93.67568442     30.12408860      1.92013071     -0.00000000     -0.00000000     -0.00000000     -0.00000000     -0.00000000      0.00000000     -0.00000000      0.00000000     -0.00000000      14
Si            -99.21862433     34.04353900     -0.00000000     -0.00000000      0.00000000     -0.00000000      0.00000000     -0.00000000     -0.00000000     -0.00000000     -0.00000000     -0.00000000      14
Si            -99.21862433     36.39520924      3.84026142     -0.00000000     -0.00000000      0.00000000     -0.00000000     -0.00000000      0.00000000      0.00000000      0.00000000     -0.00000000      14
Si            -97.00144836     37.17909932      3.84026142     -0.00000000      0.00000000      0.00000000      0.00000000     -0.00000000     -0.00000000      0.00000000     -0.00000000     -0.00000000      14
Si            -97.00144836     39.53076955      3.84026142     -0.00000000     -0.00000000      0.00000000     -0.00000000     -0.00000000      0.00000000      0.00000000      0.00000000     -0.00000000      14
Si            -98.11003634     40.31465963      1.92013071     -0.00000000      0.00000000      0.00000000      0.00000000     -0.00000000      0.00000000      0.00000000      0.00000000     -0.00000000      14
Si            -98.11003634     33.25964892      1.92013071     -0.00000000     -0.00000000      0.00000000     -0.00000000     -0.00000000      0.00000000      0.00000000      0.00000000     -0.00000000      14
Si            -95.89286038     34.04353900      1.92013071     -0.00000000      0.00000000      0.00000000      0.00000000     -0.00000000      0.00000000      0.00000000      0.00000000     -0.00000000      14
Si            -95.89286038     36.39520924      1.92013071     -0.00000000     -0.00000000      0.00000000     -0.00000000     -0.00000000     -0.00000000      0.00000000     -0.00000000     -0.00000000      14
Si            -94.78427240     40.31465963      3.84026142     -0.00000000      0.00000000     -0.00000000      0.00000000     -0.00000000      0.00000000     -0.00000000      0.00000000     -0.00000000      14
Si            -94.78427240     33.25964892     -0.00000000     -0.00000000     -0.00000000      0.00000000     -0.00000000     -0.00000000     -0.00000000      0.00000000     -0.00000000     -0.00000000      14
Si            -93.67568442     37.17909932      1.92013071     -0.00000000      0.00000000      0.00000000      0.00000000     -0.00000000     -0.00000000      0.00000000     -0.00000000     -0.00000000      14
Si            -93.67568442     39.53076955      1.92013071     -0.00000000     -0.00000000     -0.00000000     -0.00000000     -0.00000000      0.00000000     -0.00000000      0.00000000     -0.00000000      14
Si            -99.21862433     43.45021995     -0.00000000     -0.00000000      0.00000000     -0.00000000      0.00000000     -0.00000000     -0.00000000     -0.00000000     -0.00000000     -0.00000000      14
Si            -99.21862433     45.80189019      3.84026142     -0.00000000     -0.00000000     -0.00000000     -0.00000000     -0.00000000     -0.00000000     -0.00000000     -0.00000000     -0.00000000      14
Si            -97.00144836     46.58578027      3.84026142     -0.00000000      0.00000000     -0.00000000      0.00000000     -0.00000000      0.00000000     -0.00000000      0.00000000     -0.00000000      14
Si            -97.00144836     48.93745050      3.84026142     -0.00000000      0.00000000     -0.00000000      0.00000000     -0.00000000      0.00000000     -0.00000000      0.00000000     -0.00000000      14
Si            -98.11003634     49.72134058      1.92013071     -0.00000000      0.00000000     -0.00000000      0.00000000     -0.00000000      0.00000000     -0.00000000      0.00000000     -0.00000000      14
Si            -98.11003634     42.66632987      1.92013071     -0.00000000     -0.00000000      0.00000000     -0.00000000     -0.00000000      0.00000000      0.00000000      0.00000000     -0.00000000      14
Si            -95.89286038     43.45021995      1.92013071     -0.00000000      0.00000000     -0.00000000      0.00000000     -0.00000000     -0.00000000     -0.00000000     -0.00000000     -0.00000000      14
Si            -95.89286038     45.80189019      1.92013071     -0.00000000     -0.00000000     -0.00000000     -0.00000000     -0.00000000      0.00000000     -0.00000000      0.00000000     -0.00000000      14
Si            -94.78427240     49.72134058      3.84026142     -0.00000000     -0.00000000      0.00000000     -0.00000000     -0.00000000     -0.00000000      0.00000000     -0.00000000     -0.00000000      14
Si            -94.78427240     42.66632987     -0.00000000     -0.00000000     -0.00000000      0.00000000     -0.00000000     -0.00000000     -0.00000000      0.00000000     -0.00000000     -0.00000000      14
Si            -93.67568442     46.58578027      1.92013071     -0.00000000      0.00000000      0.00000000      0.00000000     -0.00000000     -0.00000000      0.00000000     -0.00000000     -0.00000000      14
Si            -93.67568442     48.93745050      1.92013071     -0.00000000      0.00000000      0.00000000      0.00000000     -0.00000000     -0.00000000      0.00000000     -0.00000000     -0.00000000      14
Si            -92.56709644    -48.93745050      0.00000000     -0.00000000     -0.00000000     -0.00000000     -0.00000000     -0.00000000      0.00000000     -0.00000000      0.00000000     -0.00000000      14
Si            -92.56709644    -46.58578027      3.84026142     -0.00000000     -0.00000000      0.00000000     -0.00000000     -0.00000000     -0.00000000      0.00000000     -0.00000000     -0.00000000      14
Si            -90.34992048    -45.80189019      3.84026142     -0.00000000     -0.00000000     -0.00000000     -0.00000000     -0.00000000      0.00000000     -0.00000000      0.00000000     -0.00000000      14
Si            -90.34992048    -43.45021995      3.84026142     -0.00000000      0.00000000     -0.00000000      0.00000000     -0.00000000     -0.00000000     -0.00000000     -0.00000000     -0.00000000      14
Si            -91.45850846    -42.66632987      1.92013071     -0.00000000      0.00000000      0.00000000      0.00000000     -0.00000000      0.00000000      0.00000000      0.00000000     -0.00000000      14
Si            -91.45850846    -49.72134058      1.92013071     -0.00000000      0.00000000     -0.00000000      0.00000000     -0.00000000      0.00000000     -0.00000000      0.00000000     -0.00000000      14
Si            -89.24133249    -48.93745050      1.92013071     -0.00000000      0.00000000     -0.00000000      0.00000000     -0.00000000      0.00000000     -0.00000000      0.00000000     -0.00000000      14
Si            -89.24133249    -46.58578027      1.92013071     -0.00000000     -0.00000000     -0.00000000     -0.00000000     -0.00000000      0.00000000     -0.00000000      0.00000000     -0.00000000      14
Si            -88.13274451    -42.66632987      3.84026142     -0.00000000      0.00000000      0.00000000      0.00000000     -0.00000000      0.00000000      0.00000000      0.00000000     -0.00000000      14
Si            -88.13274451    -49.72134058      0.00000000     -0.00000000     -0.00000000     -0.00000000     -0.00000000     -0.00000000      0.00000000     -0.00000000      0.00000000     -0.00000000      14
Si            -87.02415653    -45.80189019      1.92013071     -0.00000000     -0.00000000     -0.00000000     -0.00000000     -0.00000000     -0.00000000     -0.00000000     -0.00000000     -0.00000000      14
Si            -87.02415653    -43.45021995      1.92013071     -0.00000000      0.00000000      0.00000000      0.00000000     -0.00000000      0.00000000      0.00000000      0.00000000     -0.00000000      14
Si            -92.56709644    -39.53076955     -0.00000000     -0.00000000     -0.00000000      0.00000000     -0.00000000     -0.00000000     -0.00000000      0.00000000     -0.00000000     -0.00000000      14
Si            -92.56709644    -37.17909932      3.84026142     -0.00000000     -0.00000000      0.00000000     -0.00000000     -0.00000000     -0.00000000      0.00000000     -0.00000000     -0.00000000      14
Si            -90.34992048    -36.39520924      3.84026142     -0.00000000     -0.00000000     -0.00000000     -0.00000000     -0.00000000      0.00000000     -0.00000000      0.00000000     -0.00000000      14
Si            -90.34992048    -34.04353900      3.84026142     -0.00000000      0.00000000     -0.00000000      0.00000000     -0.00000000     -0.00000000     -0.00000000     -0.00000000     -0.00000000      14
Si            -91.45850846    -33.25964892      1.92013071     -0.00000000      0.00000000      0.00000000      0.00000000     -0.00000000      0.00000000      0.00000000      0.00000000     -0.00000000      14
Si            -91.45850846    -40.31465963      1.92013071     -0.00000000     -0.00000000      0.00000000     -0.00000000     -0.00000000     -0.00000000      0.00000000     -0.00000000     -0.00000000      14