3600
C44=0.35215345 OrigWidth=198.43724867 strain=0.08425590 G=0.31207532 YoungsModulus=0.89115452 LatticeConstant=5.43094978 K=0.10898755 CleavagePlane="1       1       1" CrackPos="-30.60517292      0.08400907      0.00000000" CrackFront="0       1      -1" SurfaceEnergy=0.08485490 PoissonRatio_yx=0.26529291 is_cracked=F CrackDirection="-2       1       1" OrigHeight=91.71513926 C12=0.47690120 C11=0.94463734 sigma0="-0.00056678      0.00537025     -0.00000890" cutoff_factor=1.20000000 nneightol=1.20000000 Lattice="398.43724867       0.00000000       0.00000000       0.00000000     291.71513926       0.00000000       0.00000000       0.00000000       3.84026142" Properties=species:S:1:pos:R:3:avg_sigma:R:9:Z:I:1
Si            -99.21862433    -48.93745051      0.00000000      0.00000000     -0.00000000     -0.00000000     -0.00000000      0.00000000      0.00000000     -0.00000000      0.00000000      0.00000000      14
Si            -99.21862433    -46.58578027      0.00000000      0.00000000      0.00000000     -0.00000000      0.00000000      0.00000000     -0.00000000     -0.00000000     -0.00000000      0.00000000      14
Si            -97.00144837    -45.80189019     -0.00000000      0.00000000     -0.00000000     -0.00000000     -0.00000000      0.00000000     -0.00000000     -0.00000000     -0.00000000      0.00000000      14
Si            -97.00144837    -43.45021995     -0.00000000      0.00000000      0.00000000      0.00000000      0.00000000      0.00000000     -0.00000000      0.00000000     -0.00000000      0.00000000      14
Si            -98.11003635    -42.66632987      1.92013071      0.00000000     -0.00000000      0.00000000     -0.00000000      0.00000000     -0.00000000      0.00000000     -0.00000000      0.00000000      14
Si            -98.11003635    -49.72134059      1.92013071      0.00000000     -0.00000000     -0.00000000     -0.00000000      0.00000000      0.00000000     -0.00000000      0.00000000      0.00000000      14
Si            -95.89286039    -48.93745051      1.92013071      0.00000000      0.00000000     -0.00000000      0.00000000      0.00000000     -0.00000000     -0.00000000     -0.00000000      0.00000000      14
Si            -95.89286039    -46.58578027      1.92013071      0.00000000      0.00000000     -0.00000000      0.00000000      0.00000000     -0.00000000     -0.00000000     -0.00000000      0.00000000      14
Si            -94.78427241    -42.66632987     -0.00000000      0.00000000     -0.00000000      0.00000000     -0.00000000      0.00000000      0.00000000      0.00000000      0.00000000      0.00000000      14
Si            -94.78427241    -49.72134059      0.00000000      0.00000000      0.00000000     -0.00000000      0.00000000      0.00000000      0.00000000     -0.00000000      0.00000000      0.00000000      14
Si            -93.67568443    -45.80189019      1.92013071      0.00000000     -0.00000000      0.00000000     -0.00000000      0.00000000     -0.00000000      0.00000000     -0.00000000      0.00000000      14
Si            -93.67568443    -43.45021995      1.92013071      0.00000000      0.00000000     -0.00000000      0.00000000      0.00000000      0.00000000     -0.00000000      0.00000000      0.00000000      14
Si            -99.21862433    -39.53076956     -0.00000000      0.00000000     -0.00000000      0.00000000     -0.00000000      0.00000000     -0.00000000      0.00000000     -0.00000000      0.00000000      14
Si            -99.21862433    -37.17909932     -0.00000000      0.00000000      0.00000000     -0.00000000      0.00000000      0.00000000      0.00000000     -0.00000000      0.00000000      0.00000000      14
Si            -97.00144837    -36.39520924     -0.00000000      0.00000000     -0.00000000     -0.00000000     -0.00000000      0.00000000     -0.00000000     -0.00000000     -0.00000000      0.00000000      14
Si            -97.00144837    -34.04353900     -0.00000000      0.00000000      0.00000000     -0.00000000      0.00000000      0.00000000     -0.00000000     -0.00000000     -0.00000000      0.00000000      14
Si            -98.11003635    -33.25964892      1.92013071      0.00000000     -0.00000000     -0.00000000     -0.00000000      0.00000000     -0.00000000     -0.00000000      0.00000000      0.00000000      14
Si            -98.11003635    -40.31465964      1.92013071      0.00000000      0.00000000      0.00000000      0.00000000      0.00000000     -0.00000000      0.00000000     -0.00000000      0.00000000      14
Si            -95.89286039    -39.53076956      1.92013071      0.00000000     -0.00000000     -0.00000000     -0.00000000      0.00000000     -0.00000000     -0.00000000     -0.00000000      0.00000000      14
Si            -95.89286039    -37.17909932      1.92013071      0.00000000      0.00000000     -0.00000000      0.00000000      0.00000000     -0.00000000     -0.00000000     -0.00000000      0.00000000      14
Si            -94.78427241    -33.25964892     -0.00000000      0.00000000     -0.00000000     -0.00000000     -0.00000000      0.00000000     -0.00000000     -0.00000000     -0.00000000      0.00000000      14
Si            -94.78427241    -40.31465964     -0.00000000      0.00000000      0.00000000     -0.00000000      0.00000000      0.00000000      0.00000000     -0.00000000      0.00000000      0.00000000      14
Si            -93.67568443    -36.39520924      1.92013071      0.00000000     -0.00000000      0.00000000     -0.00000000      0.00000000     -0.00000000      0.00000000     -0.00000000      0.00000000      14
Si            -93.67568443    -34.04353900      1.92013071      0.00000000      0.00000000      0.00000000      0.00000000      0.00000000      0.00000000      0.00000000      0.00000000      0.00000000      14
Si            -99.21862433    -30.12408861     -0.00000000      0.00000000     -0.00000000      0.00000000     -0.00000000      0.00000000      0.00000000      0.00000000      0.00000000      0.00000000      14
Si            -99.21862433    -27.77241837     -0.00000000      0.00000000      0.00000000     -0.00000000      0.00000000      0.00000000     -0.00000000     -0.00000000     -0.00000000      0.00000000      14
Si            -97.00144837    -26.98852829     -0.00000000      0.00000000     -0.00000000     -0.00000000     -0.00000000      0.00000000      0.00000000     -0.00000000      0.00000000      0.00000000      14
Si            -97.00144837    -24.63685805     -0.00000000      0.00000000      0.00000000      0.00000000      0.00000000      0.00000000     -0.00000000      0.00000000     -0.00000000      0.00000000      14
Si            -98.11003635    -23.85296797      1.92013071      0.00000000     -0.00000000      0.00000000     -0.00000000      0.00000000     -0.00000000      0.00000000     -0.00000000      0.00000000      14
Si            -98.11003635    -30.90797869      1.92013071      0.00000000      0.00000000      0.00000000      0.00000000      0.00000000      0.00000000      0.00000000      0.00000000      0.00000000      14
Si            -95.89286039    -30.12408861      1.92013071      0.00000000     -0.00000000     -0.00000000     -0.00000000      0.00000000      0.00000000     -0.00000000      0.00000000      0.00000000      14
Si            -95.89286039    -27.77241837      1.92013071      0.00000000      0.00000000     -0.00000000      0.00000000      0.00000000      0.00000000     -0.00000000      0.00000000      0.00000000      14
Si            -94.78427241    -23.85296797     -0.00000000      0.00000000     -0.00000000     -0.00000000     -0.00000000      0.00000000     -0.00000000     -0.00000000     -0.00000000      0.00000000      14
Si            -94.78427241    -30.90797869     -0.00000000      0.00000000      0.00000000     -0.00000000      0.00000000      0.00000000      0.00000000     -0.00000000      0.00000000      0.00000000      14
Si            -93.67568443    -26.98852829      1.92013071      0.00000000     -0.00000000      0.00000000     -0.00000000      0.00000000     -0.00000000      0.00000000     -0.00000000      0.00000000      14
Si            -93.67568443    -24.63685805      1.92013071      0.00000000      0.00000000      0.00000000      0.00000000      0.00000000      0.00000000      0.00000000      0.00000000      0.00000000      14
Si            -99.21862433    -20.71740766     -0.00000000      0.00000000     -0.00000000      0.00000000     -0.00000000      0.00000000     -0.00000000      0.00000000     -0.00000000      0.00000000      14
Si            -99.21862433    -18.36573742     -0.00000000      0.00000000      0.00000000     -0.00000000      0.00000000      0.00000000      0.00000000     -0.00000000      0.00000000      0.00000000      14
Si            -97.00144837    -17.58184734     -0.00000000      0.00000000     -0.00000000     -0.00000000     -0.00000000      0.00000000     -0.00000000     -0.00000000     -0.00000000      0.00000000      14
Si            -97.00144837    -15.23017710     -0.00000000      0.00000000      0.00000000     -0.00000000      0.00000000      0.00000000     -0.00000000     -0.00000000     -0.00000000      0.00000000      14
Si            -98.11003635    -14.44628702      1.92013071      0.00000000     -0.00000000     -0.00000000     -0.00000000      0.00000000     -0.00000000     -0.00000000     -0.00000000      0.00000000      14
Si            -98.11003635    -21.50129774      1.92013071      0.00000000      0.00000000      0.00000000      0.00000000      0.00000000     -0.00000000      0.00000000     -0.00000000      0.00000000      14
Si            -95.89286039    -20.71740766      1.92013071      0.00000000     -0.00000000     -0.00000000     -0.00000000      0.00000000      0.00000000     -0.00000000      0.00000000      0.00000000      14
Si            -95.89286039    -18.36573742      1.92013071      0.00000000      0.00000000     -0.00000000      0.00000000      0.00000000     -0.00000000     -0.00000000     -0.00000000      0.00000000      14
Si            -94.78427241    -14.44628702     -0.00000000      0.00000000     -0.00000000     -0.00000000     -0.00000000      0.00000000     -0.00000000     -0.00000000     -0.00000000      0.00000000      14
Si            -94.78427241    -21.50129774     -0.00000000      0.00000000      0.00000000     -0.00000000      0.00000000      0.00000000      0.00000000     -0.00000000      0.00000000      0.00000000      14
Si            -93.67568443    -17.58184734      1.92013071      0.00000000     -0.00000000     -0.00000000     -0.00000000      0.00000000     -0.00000000     -0.00000000     -0.00000000      0.00000000      14
Si            -93.67568443    -15.23017710      1.92013071      0.00000000      0.00000000      0.00000000      0.00000000      0.00000000      0.00000000      0.00000000      0.00000000      0.00000000      14
Si            -99.21862433    -11.31072671     -0.00000000      0.00000000     -0.00000000      0.00000000     -0.00000000      0.00000000      0.00000000      0.00000000      0.00000000      0.00000000      14
Si            -99.21862433     -8.95905647     -0.00000000      0.00000000      0.00000000     -0.00000000      0.00000000      0.00000000      0.00000000     -0.00000000      0.00000000      0.00000000      14
Si            -97.00144837     -8.17516639     -0.00000000      0.00000000     -0.00000000     -0.00000000     -0.00000000      0.00000000     -0.00000000     -0.00000000     -0.00000000      0.00000000      14
Si            -97.00144837     -5.82349615     -0.00000000      0.00000000     -0.00000000      0.00000000     -0.00000000      0.00000000     -0.00000000      0.00000000     -0.00000000      0.00000000      14
Si            -98.11003635     -5.03960607      1.92013071      0.00000000     -0.00000000      0.00000000     -0.00000000      0.00000000     -0.00000000      0.00000000     -0.00000000      0.00000000      14
Si            -98.11003635    -12.09461679      1.92013071      0.00000000      0.00000000      0.00000000      0.00000000      0.00000000     -0.00000000      0.00000000     -0.00000000      0.00000000      14
Si            -95.89286039    -11.31072671      1.92013071      0.00000000     -0.00000000     -0.00000000     -0.00000000      0.00000000      0.00000000     -0.00000000      0.00000000      0.00000000      14
Si            -95.89286039     -8.95905647      1.92013071      0.00000000      0.00000000     -0.00000000      0.00000000      0.00000000     -0.00000000     -0.00000000     -0.00000000      0.00000000      14
Si            -94.78427241     -5.03960607     -0.00000000      0.00000000     -0.00000000     -0.00000000     -0.00000000      0.00000000     -0.00000000     -0.00000000     -0.00000000      0.00000000      14
Si            -94.78427241    -12.09461679     -0.00000000      0.00000000      0.00000000     -0.00000000      0.00000000      0.00000000      0.00000000     -0.00000000      0.00000000      0.00000000      14
Si            -93.67568443     -8.17516639      1.92013071      0.00000000     -0.00000000      0.00000000     -0.00000000      0.00000000     -0.00000000      0.00000000     -0.00000000      0.00000000      14
Si            -93.67568443     -5.82349615      1.92013071      0.00000000      0.00000000      0.00000000      0.00000000      0.00000000      0.00000000      0.00000000      0.00000000      0.00000000      14
Si            -99.21862433      5.82349615     -0.00000000     -0.00000000      0.00000000      0.00000000      0.00000000     -0.00000000      0.00000000      0.00000000      0.00000000      0.00000000      14
Si            -99.21862433      8.17516639     -0.00000000      0.00000000      0.00000000     -0.00000000      0.00000000     -0.00000000     -0.00000000     -0.00000000     -0.00000000     -0.00000000      14
Si            -97.00144837      8.95905647     -0.00000000      0.00000000     -0.00000000     -0.00000000     -0.00000000      0.00000000     -0.00000000     -0.00000000     -0.00000000      0.00000000      14
Si            -97.00144837     11.31072671     -0.00000000      0.00000000      0.00000000     -0.00000000      0.00000000      0.00000000      0.00000000     -0.00000000      0.00000000      0.00000000      14
Si            -98.11003635     12.09461679      1.92013071      0.00000000     -0.00000000     -0.00000000     -0.00000000      0.00000000      0.00000000     -0.00000000      0.00000000      0.00000000      14
Si            -98.11003635      5.03960607      1.92013071      0.00000000      0.00000000      0.00000000      0.00000000      0.00000000     -0.00000000      0.00000000     -0.00000000      0.00000000      14
Si            -95.89286039      5.82349615      1.92013071      0.00000000     -0.00000000      0.00000000     -0.00000000      0.00000000     -0.00000000      0.00000000     -0.00000000      0.00000000      14
Si            -95.89286039      8.17516639      1.92013071      0.00000000      0.00000000     -0.00000000      0.00000000      0.00000000     -0.00000000     -0.00000000     -0.00000000      0.00000000      14
Si            -94.78427241     12.09461679     -0.00000000      0.00000000     -0.00000000     -0.00000000     -0.00000000      0.00000000      0.00000000     -0.00000000      0.00000000      0.00000000      14
Si            -94.78427241      5.03960607     -0.00000000      0.00000000      0.00000000      0.00000000      0.00000000      0.00000000     -0.00000000      0.00000000     -0.00000000      0.00000000      14
Si            -93.67568443      8.95905647      1.92013071      0.00000000     -0.00000000      0.00000000     -0.00000000      0.00000000     -0.00000000      0.00000000     -0.00000000      0.00000000      14
Si            -93.67568443     11.31072671      1.92013071      0.00000000      0.00000000     -0.00000000      0.00000000      0.00000000      0.00000000     -0.00000000      0.00000000      0.00000000      14
Si            -99.21862433     15.23017710     -0.00000000      0.00000000     -0.00000000     -0.00000000     -0.00000000      0.00000000      0.00000000     -0.00000000      0.00000000      0.00000000      14
Si            -99.21862433     17.58184734     -0.00000000      0.00000000      0.00000000     -0.00000000      0.00000000      0.00000000     -0.00000000     -0.00000000     -0.00000000      0.00000000      14
Si            -97.00144837     18.36573742     -0.00000000      0.00000000     -0.00000000     -0.00000000     -0.00000000      0.00000000     -0.00000000     -0.00000000     -0.00000000      0.00000000      14
Si            -97.00144837     20.71740766     -0.00000000      0.00000000      0.00000000      0.00000000      0.00000000      0.00000000     -0.00000000      0.00000000     -0.00000000      0.00000000      14
Si            -98.11003635     21.50129774      1.92013071      0.00000000     -0.00000000      0.00000000     -0.00000000      0.00000000     -0.00000000      0.00000000     -0.00000000      0.00000000      14
Si            -98.11003635     14.44628702      1.92013071      0.00000000      0.00000000     -0.00000000      0.00000000      0.00000000      0.00000000     -0.00000000      0.00000000      0.00000000      14
Si            -95.89286039     15.23017710      1.92013071      0.00000000     -0.00000000      0.00000000     -0.00000000      0.00000000     -0.00000000      0.00000000     -0.00000000      0.00000000      14
Si            -95.89286039     17.58184734      1.92013071      0.00000000      0.00000000      0.00000000      0.00000000      0.00000000      0.00000000      0.00000000      0.00000000      0.00000000      14
Si            -94.78427241     21.50129774     -0.00000000      0.00000000     -0.00000000      0.00000000     -0.00000000      0.00000000      0.00000000      0.00000000      0.00000000      0.00000000      14
Si            -94.78427241     14.44628702     -0.00000000      0.00000000      0.00000000      0.00000000      0.00000000      0.00000000     -0.00000000      0.00000000     -0.00000000      0.00000000      14
Si            -93.67568443     18.36573742      1.92013071      0.00000000     -0.00000000     -0.00000000     -0.00000000      0.00000000     -0.00000000     -0.00000000     -0.00000000      0.00000000      14
Si            -93.67568443     20.71740766      1.92013071      0.00000000      0.00000000      0.00000000      0.00000000      0.00000000      0.00000000      0.00000000      0.00000000      0.00000000      14
Si            -99.21862433     24.63685805     -0.00000000      0.00000000     -0.00000000      0.00000000     -0.00000000      0.00000000      0.00000000      0.00000000      0.00000000      0.00000000      14
Si            -99.21862433     26.98852829     -0.00000000      0.00000000      0.00000000     -0.00000000      0.00000000      0.00000000     -0.00000000     -0.00000000     -0.00000000      0.00000000      14
Si            -97.00144837     27.77241837     -0.00000000      0.00000000     -0.00000000     -0.00000000     -0.00000000      0.00000000     -0.00000000     -0.00000000     -0.00000000      0.00000000      14
Si            -97.00144837     30.12408861     -0.00000000      0.00000000      0.00000000     -0.00000000      0.00000000      0.00000000     -0.00000000     -0.00000000     -0.00000000      0.00000000      14
Si            -98.11003635     30.90797869      1.92013071      0.00000000     -0.00000000      0.00000000     -0.00000000      0.00000000      0.00000000      0.00000000      0.00000000      0.00000000      14
Si            -98.11003635     23.85296797      1.92013071      0.00000000      0.00000000      0.00000000      0.00000000      0.00000000     -0.00000000      0.00000000     -0.00000000      0.00000000      14
Si            -95.89286039     24.63685805      1.92013071      0.00000000     -0.00000000      0.00000000     -0.00000000      0.00000000     -0.00000000      0.00000000     -0.00000000      0.00000000      14
Si            -95.89286039     26.98852829      1.92013071      0.00000000      0.00000000     -0.00000000      0.00000000      0.00000000      0.00000000     -0.00000000      0.00000000      0.00000000      14
Si            -94.78427241     30.90797869     -0.00000000      0.00000000     -0.00000000      0.00000000     -0.00000000      0.00000000     -0.00000000      0.00000000     -0.00000000      0.00000000      14
Si            -94.78427241     23.85296797     -0.00000000      0.00000000      0.00000000      0.00000000      0.00000000      0.00000000     -0.00000000      0.00000000     -0.00000000      0.00000000      14
Si            -93.67568443     27.77241837      1.92013071      0.00000000     -0.00000000      0.00000000     -0.00000000      0.00000000      0.00000000      0.00000000      0.00000000      0.00000000      14
Si            -93.67568443     30.12408861      1.92013071      0.00000000      0.00000000      0.00000000      0.00000000      0.00000000     -0.00000000      0.00000000     -0.00000000      0.00000000      14
Si            -99.21862433     34.04353900     -0.00000000      0.00000000     -0.00000000     -0.00000000     -0.00000000      0.00000000      0.00000000     -0.00000000      0.00000000      0.00000000      14
Si            -99.21862433     36.39520924     -0.00000000      0.00000000      0.00000000     -0.00000000      0.00000000      0.00000000     -0.00000000     -0.00000000     -0.00000000      0.00000000      14
Si            -97.00144837     37.17909932     -0.00000000      0.00000000     -0.00000000     -0.00000000     -0.00000000      0.00000000     -0.00000000     -0.00000000     -0.00000000      0.00000000      14
Si            -97.00144837     39.53076956     -0.00000000      0.00000000      0.00000000     -0.00000000      0.00000000      0.00000000      0.00000000     -0.00000000      0.00000000      0.00000000      14
Si            -98.11003635     40.31465964      1.92013071      0.00000000     -0.00000000     -0.00000000     -0.00000000      0.00000000      0.00000000     -0.00000000      0.00000000      0.00000000      14
Si            -98.11003635     33.25964892      1.92013071      0.00000000      0.00000000     -0.00000000      0.00000000      0.00000000      0.00000000     -0.00000000      0.00000000      0.00000000      14
Si            -95.89286039     34.04353900      1.92013071      0.00000000     -0.00000000      0.00000000     -0.00000000      0.00000000     -0.00000000      0.00000000     -0.00000000      0.00000000      14
Si            -95.89286039     36.39520924      1.92013071      0.00000000      0.00000000      0.00000000      0.00000000      0.00000000      0.00000000      0.00000000      0.00000000      0.00000000      14
Si            -94.78427241     40.31465964     -0.00000000      0.00000000     -0.00000000     -0.00000000     -0.00000000      0.00000000      0.00000000     -0.00000000      0.00000000      0.00000000      14
Si            -94.78427241     33.25964892     -0.00000000      0.00000000      0.00000000      0.00000000      0.00000000      0.00000000     -0.00000000      0.00000000     -0.00000000      0.00000000      14
Si            -93.67568443     37.17909932      1.92013071      0.00000000     -0.00000000     -0.00000000     -0.00000000      0.00000000      0.00000000     -0.00000000      0.00000000      0.00000000      14
Si            -93.67568443     39.53076956      1.92013071      0.00000000      0.00000000     -0.00000000      0.00000000      0.00000000      0.00000000     -0.00000000      0.00000000      0.00000000      14
Si            -99.21862433     43.45021995     -0.00000000      0.00000000     -0.00000000     -0.00000000     -0.00000000      0.00000000      0.00000000     -0.00000000      0.00000000      0.00000000      14
Si            -99.21862433     45.80189019     -0.00000000      0.00000000      0.00000000     -0.00000000      0.00000000      0.00000000     -0.00000000     -0.00000000     -0.00000000      0.00000000      14
Si            -97.00144837     46.58578027     -0.00000000      0.00000000     -0.00000000     -0.00000000     -0.00000000      0.00000000      0.00000000     -0.00000000      0.00000000      0.00000000      14
Si            -97.00144837     48.93745051      0.00000000      0.00000000     -0.00000000      0.00000000     -0.00000000      0.00000000      0.00000000      0.00000000      0.00000000      0.00000000      14
Si            -98.11003635     49.72134059      1.92013071      0.00000000     -0.00000000      0.00000000     -0.00000000      0.00000000     -0.00000000      0.00000000     -0.00000000      0.00000000      14
Si            -98.11003635     42.66632987      1.92013071      0.00000000      0.00000000     -0.00000000      0.00000000      0.00000000      0.00000000     -0.00000000      0.00000000      0.00000000      14
Si            -95.89286039     43.45021995      1.92013071      0.00000000     -0.00000000     -0.00000000     -0.00000000      0.00000000      0.00000000     -0.00000000      0.00000000      0.00000000      14
Si            -95.89286039     45.80189019      1.92013071      0.00000000      0.00000000     -0.00000000      0.00000000      0.00000000      0.00000000     -0.00000000      0.00000000      0.00000000      14
Si            -94.78427241     49.72134059      0.00000000      0.00000000     -0.00000000     -0.00000000     -0.00000000      0.00000000     -0.00000000     -0.00000000     -0.00000000      0.00000000      14
Si            -94.78427241     42.66632987     -0.00000000      0.00000000      0.00000000     -0.00000000      0.00000000      0.00000000      0.00000000     -0.00000000      0.00000000      0.00000000      14
Si            -93.67568443     46.58578027      1.92013071      0.00000000     -0.00000000      0.00000000     -0.00000000      0.00000000      0.00000000      0.00000000      0.00000000      0.00000000      14
Si            -93.67568443     48.93745051      1.92013071      0.00000000     -0.00000000      0.00000000     -0.00000000      0.00000000      0.00000000      0.00000000      0.00000000      0.00000000      14
Si            -92.56709645    -48.93745051      0.00000000      0.00000000      0.00000000     -0.00000000      0.00000000      0.00000000      0.00000000     -0.00000000      0.00000000      0.00000000      14
Si            -92.56709645    -46.58578027     -0.00000000      0.00000000      0.00000000      0.00000000      0.00000000      0.00000000     -0.00000000      0.00000000     -0.00000000      0.00000000      14
Si            -90.34992048    -45.80189019     -0.00000000      0.00000000     -0.00000000     -0.00000000     -0.00000000      0.00000000      0.00000000     -0.00000000      0.00000000      0.00000000      14
Si            -90.34992048    -43.45021995     -0.00000000      0.00000000     -0.00000000     -0.00000000     -0.00000000      0.00000000     -0.00000000     -0.00000000     -0.00000000      0.00000000      14
Si            -91.45850846    -42.66632987      1.92013071      0.00000000     -0.00000000      0.00000000     -0.00000000      0.00000000     -0.00000000      0.00000000     -0.00000000      0.00000000      14
Si            -91.45850846    -49.72134059      1.92013071      0.00000000      0.00000000     -0.00000000      0.00000000      0.00000000      0.00000000     -0.00000000      0.00000000      0.00000000      14
Si            -89.24133250    -48.93745051      1.92013071      0.00000000     -0.00000000     -0.00000000     -0.00000000      0.00000000     -0.00000000     -0.00000000     -0.00000000      0.00000000      14
Si            -89.24133250    -46.58578027      1.92013071      0.00000000      0.00000000     -0.00000000      0.00000000      0.00000000      0.00000000     -0.00000000      0.00000000      0.00000000      14
Si            -88.13274452    -42.66632987     -0.00000000      0.00000000      0.00000000     -0.00000000      0.00000000      0.00000000      0.00000000     -0.00000000      0.00000000      0.00000000      14
Si            -88.13274452    -49.72134059      0.00000000      0.00000000     -0.00000000     -0.00000000     -0.00000000      0.00000000     -0.00000000     -0.00000000     -0.00000000      0.00000000      14
Si            -87.02415654    -45.80189019      1.92013071      0.00000000     -0.00000000     -0.00000000     -0.00000000      0.00000000      0.00000000     -0.00000000      0.00000000      0.00000000      14
Si            -87.02415654    -43.45021995      1.92013071      0.00000000      0.00000000      0.00000000      0.00000000      0.00000000      0.00000000      0.00000000      0.00000000      0.00000000      14
Si            -92.56709645    -39.53076956     -0.00000000      0.00000000      0.00000000      0.00000000      0.00000000      0.00000000      0.00000000      0.00000000      0.00000000      0.00000000      14
Si            -92.56709645    -37.17909932     -0.00000000      0.00000000      0.00000000      0.00000000      0.00000000      0.00000000     -0.00000000      0.00000000     -0.00000000      0.00000000      14
Si            -90.34992048    -36.39520924     -0.00000000      0.00000000      0.00000000     -0.00000000      0.00000000      0.00000000     -0.00000000     -0.00000000     -0.00000000      0.00000000      14
Si            -90.34992048    -34.04353900     -0.00000000      0.00000000      0.00000000      0.00000000      0.00000000      0.00000000      0.00000000      0.00000000      0.00000000      0.00000000      14
Si            -91.45850846    -33.25964892      1.92013071      0.00000000     -0.00000000     -0.00000000     -0.00000000      0.00000000     -0.00000000     -0.00000000     -0.00000000      0.00000000      14
Si            -91.45850846    -40.31465964      1.92013071      0.00000000      0.00000000     -0.00000000      0.00000000      0.00000000     -0.00000000     -0.00000000     -0.00000000      0.00000000      14