4320
OrigWidth=144.69990271 OrigHeight=42.02083299 YoungsModulus=73.64329057 PoissonRatio_yx=0.20497927 PoissonRatio_yz=0.20497927 G=9.00000000 CrackPosx=-35.34995136 CrackPosy=0.00000000 OrigCrackPos=-35.34995136 n_efield_old=3 energy=-80772.84236037 Time=0.00000000 LastStateChangeTime=0.00000000 LastMDIntervalTime=0.00000000 LastCalcConnectTime=0.00000000 State=MD_CONSTANT LastPrintTimee=0.00000000 Lattice="242.71850332       0.00000000       0.00000000       0.00000000     141.16964820       0.00000000       0.00000000       0.00000000       8.38461967" Properties=species:S:1:pos:R:3:Z:I:1:primitive_index:I:1:travel:I:3:orig_index:I:1:map_shift:I:3:hybrid:I:1:hybrid_mark:I:1:changed_nn:I:1:move_mask:I:1:nn:I:1:old_nn:I:1:md_old_changed_nn:I:1:edge_mask:I:1:crack_surface:L:1:crack_front:L:1:load:R:3:load_mask:I:1:force:R:3:mass:R:1:damp_mask:I:1:thermostat_region:I:1:avg_ke:R:1:velo:R:3:acc:R:3:avgpos:R:3:oldpos:R:3:charge:R:1:fixdip:L:1:efield:R:3:dipoles:R:3:efield_old1:R:3:efield_old2:R:3:efield_old3:R:3
O             -70.34917673    -24.81300168      3.86736948       8       4       1       0       1     112       0       0       0       0       0       0       0       2       2       0       1    F    F      0.00000000     -0.12534664      0.00000000       0     -3.72410276     -2.58345254     -3.70466874   1658.22137690       1       1      0.00000000      0.00000000      0.00000000      0.00000000      0.00000000      0.00000000      0.00000000    174.14996372    -25.06932891     12.25198915    174.14996372    -25.06932891     12.25198915     -1.42955940    F     -0.66554020     -2.08314879      6.12599531      0.13127314      0.04615820      0.50594646     -0.29083498     -0.14176399      0.67990462     -0.29118764     -0.14511538      0.67866099     -0.29155507     -0.14851461      0.67745488
Si            -70.89151996    -25.39153396      2.47917039      14       1       1       0       1     109       0       0       0       0       0       0       0       2       2       0       1    F    F      0.00000000     -0.12826919      0.00000000       0      5.86936557      3.50443329      3.40067622   2910.85773629       1       1      0.00000000      0.00000000      0.00000000      0.00000000      0.00000000      0.00000000      0.00000000    173.60201789    -25.65383764     10.86379006    173.60201789    -25.65383764     10.86379006      2.85911880    F      1.84637451      6.12604728      2.27534346      0.00000000      0.00000000      0.00000000     -0.94783699      1.51430572      0.80409685     -0.94549860      1.51553158      0.80195705     -0.94304793      1.51675944      0.79984409
O             -68.51758810    -24.21206117     -2.79076918       8       8       0       0       0      44       0       0       0       0       0       0       0       2       2       0       1    F    F      0.00000000     -0.12231090      0.00000000       0     -0.72620955      0.02907916     -0.67328339   1658.22137690       1       1      0.00000000      0.00000000      0.00000000      0.00000000      0.00000000      0.00000000      0.00000000    -69.22539943    -24.46218047     -2.79076918    -69.22539943    -24.46218047     -2.79076918     -1.42955940    F      5.01807934      3.37327799      0.89475147      0.27275077      0.24574706      0.08545635      0.32546165     -0.41181145      0.53032066      0.32579074     -0.41636081      0.52955215      0.32601218     -0.42058481      0.52901689
O             -67.74234551    -21.30567725     -2.33110155       8       5       0       0       1      41       0       0       0       0       0       0       1       2       2       0       1    F    F      0.00000000     -0.10758499      0.00000000       0      3.14123659      0.28111622      0.26826815   1658.22137690       1       1      0.01524953      0.00000000      0.00000000      0.00000000      0.00209506      0.00061094     -0.00005016    -68.26404742    -21.52515292      6.13561817    -68.25918102    -21.51699713      6.15169694     -1.42955940    F     -3.25129073     -6.47990292     -4.96643048     -0.30187626     -0.37875609     -0.25926322      0.30294556      0.14624539      0.04124316      0.30450783      0.15223612      0.04064484      0.30522185      0.15830474      0.04016509
Si            -69.43633984    -23.63352889     -3.95940373      14       3       0       0       0      39       0       0       0       0       0       0       0       4       4       0       1    F    F      0.00000000     -0.11938836      0.00000000       0      4.12125628     -0.46205429      0.10076657   2910.85773629       1       1      0.00000000      0.00000000      0.00000000      0.00000000      0.00000000      0.00000000      0.00000000    -70.15364220    -23.87767174     -3.95940373    -70.15364220    -23.87767174     -3.95940373      2.85911880    F      1.37298430      0.54056361     -0.23320074      0.00000000      0.00000000      0.00000000      0.88970160      0.40029059      0.35741326      0.88338815      0.38497748      0.37487944      0.87723425      0.36973911      0.39265985
O             -70.34917673    -22.45405610     -3.40155728       8       7       0       1      -1      34       0       0       0       0       0       0       0       2       2       0       1    F    F      0.00000000     -0.11343007      0.00000000       0     -3.11658928      0.44896039      0.95119464   1658.22137690       1       1      0.00000000      0.00000000      0.00000000      0.00000000      0.00000000      0.00000000      0.00000000    -71.07590903    119.94196687    -11.78617695    -71.07590903    119.94196687    -11.78617695     -1.42955940    F     -0.81243135      3.20824826     -4.97054672      0.11164861      0.16878121     -0.32478292     -0.59878078      0.42000780     -0.30765399     -0.60163361      0.42047340     -0.30567436     -0.60395861      0.42118232     -0.30358270
Si            -70.89151996    -21.87552382     -2.01335818      14       2       0       1       0      29       0       0       0       0       0       0       0       3       3       0       1    F    F      0.00000000     -0.11050753      0.00000000       0      9.90647434      0.32303505     -0.78705641   2910.85773629       1       1      0.00000000      0.00000000      0.00000000      0.00000000      0.00000000      0.00000000      0.00000000    -71.62385486    120.52647559     -2.01335818    -71.62385486    120.52647559     -2.01335818      2.85911880    F      5.17867922      0.22315228      0.33699297      0.00000000      0.00000000      0.00000000     -0.41058078      1.19794798      0.21738922     -0.41302450      1.19522633      0.21811203     -0.41533919      1.19128655      0.21806099
O             -67.56124902    -25.97006624      2.69873493       8       9       0       0       0      18       0       0       0       0       0       0       0       1       1       0       1    F    F      0.00000000     -0.13119173      0.00000000       0      2.68535569      0.56150064     -1.04902365   1658.22137690       1       1      0.00000000      0.00000000      0.00000000      0.00000000      0.00000000      0.00000000      0.00000000    -68.25918102    -26.23834636      2.69873493    -68.25918102    -26.23834636      2.69873493     -1.42955940    F     -7.91548938     -2.89100229      1.29299736     -0.45088220     -0.08416437      0.08636820      0.16535701     -0.01341660     -0.18609590      0.16495569     -0.01008080     -0.18684104      0.16456821     -0.00674373     -0.18760634
O             -68.72053799    -23.14583729      3.09620506       8       6       0       0       1      15       0       0       0       0       0       0       1       2       2       0       1    F    F      0.00000000     -0.11646582      0.00000000       0     -0.29316935      0.54066486      0.16386259   1658.22137690       1       1      0.01922929      0.00000000      0.00000000      0.00000000     -0.00039682      0.00090110      0.00007099    -69.28200994    -23.28968623     11.61822331    -69.22539943    -23.29316302     11.64120106     -1.42955940    F      1.72754883     -3.01967657     -2.59066642      0.06216681     -0.18213595     -0.17380584      0.71055606     -0.25501635     -0.40352000      0.70994554     -0.25644068     -0.40744517      0.70900120     -0.25798220     -0.41097462
O             -69.95693197    -25.97006624     -1.49357491       8       9       0       0       0       9       0       0       0       0       0       0       0       1       1       0       1    F    F      0.00000000     -0.13119173      0.00000000       0      2.48173081      1.35260144     -0.46232229   1658.22137690       1       1      0.00000000      0.00000000      0.00000000      0.00000000      0.00000000      0.00000000      0.00000000    -70.67961224    -26.23834636     -1.49357491    -70.67961224    -26.23834636     -1.49357491     -1.42955940    F     -8.13346690     -3.25662186      1.01382567     -0.46853988     -0.14306057      0.04381910     -0.05031138     -0.17243491     -0.16806439     -0.05008117     -0.17323178     -0.16705071     -0.04984097     -0.17397480     -0.16602412
O             -70.91327105    -24.21206117      1.40154065       8       8       0       0       0       8       0       0       0       0       0       0       0       2       2       0       1    F    F      0.00000000     -0.12231090      0.00000000       0     -4.99483364     -1.30949074     -0.59342741   1658.22137690       1       1      0.00000000      0.00000000      0.00000000      0.00000000      0.00000000      0.00000000      0.00000000    -71.64583064    -24.46218047      1.40154065    -71.64583064    -24.46218047      1.40154065     -1.42955940    F      7.06019490      4.27452893      0.89981612      0.66084224      0.38327392      0.09027414     -0.51630909     -0.09217748      0.46409240     -0.51296769     -0.09170645      0.46409030     -0.50954341     -0.09128032      0.46402645
O             -68.19040871    -22.67739509      0.68275959       8       7       0       0      -1       7       0       0       0       0       0       0       1       2       2       0       1    F    F      0.00000000     -0.11343007      0.00000000       0     -0.89562122      1.68039111      1.13062902   1658.22137690       1       1      0.01836777      0.00000000      0.00000000      0.00000000     -0.00022488      0.00095045      0.00055481    -68.68565947    -22.70223103     -7.60066458    -68.65547782    -22.68601457     -7.59386711     -1.42955940    F     -6.34718700      1.10520632     -6.46305231     -0.33793228      0.00149641     -0.41982280      0.94444050      0.20113117     -0.32430842      0.94289641      0.19907100     -0.32189896      0.94136263      0.19680583     -0.31977262
O             -70.91327105    -23.05499661     -0.93572845       8       6       0       0       1       6       0       0       0       0       0       0       0       2       2       0       1    F    F      0.00000000     -0.11646582      0.00000000       0     -6.45524353      0.34896695      2.52855093   1658.22137690       1       1      0.00000000      0.00000000      0.00000000      0.00000000      0.00000000      0.00000000      0.00000000    -71.64583064    -23.29316302      7.44889122    -71.64583064    -23.29316302      7.44889122     -1.42955940    F      7.31577015     -3.20375052     -1.55182299      0.70755828     -0.18674243     -0.18741857     -0.46949183      0.17928972     -0.77947934     -0.47161705      0.17889468     -0.77797448     -0.47345301      0.17833023     -0.77648691
O             -69.95693197    -21.29699155      1.95938711       8       5       0       0       1       5       0       0       0       0       0       0       0       2       2       0       1    F    F      0.00000000     -0.10758499      0.00000000       0     -3.95141502      0.87565679      0.13894836   1658.22137690       1       1      0.00000000      0.00000000      0.00000000      0.00000000      0.00000000      0.00000000      0.00000000    -70.67961224    -21.51699713     10.34400678    -70.67961224    -21.51699713     10.34400678     -1.42955940    F      2.30021552     -4.84342049     -2.93659639      0.25871129     -0.27999049     -0.15491934     -0.46246719     -0.17958533      0.29607292     -0.45851644     -0.18583069      0.29322956     -0.45464549     -0.19140093      0.29057995
O             -67.95349379    -24.81300168     -0.32494035       8       4       0       0       1       4       0       0       0       0       0       0       0       2       2       0       1    F    F      0.00000000     -0.12534664      0.00000000       0     -0.30037833     -1.06997547     -1.42169942   1658.22137690       1       1      0.00000000      0.00000000      0.00000000      0.00000000      0.00000000      0.00000000      0.00000000    -68.65547782    -25.06932891      8.05967932    -68.65547782    -25.06932891      8.05967932     -1.42955940    F     -2.02315142     -2.71446216      4.99520114     -0.12221337     -0.04203052      0.34227502      0.21455540     -0.66643815      0.23649598      0.21378301     -0.66900171      0.24503729      0.21289386     -0.67066603      0.25360761
Si            -71.83202278    -23.63352889      0.23290610      14       3       0       0       0       3       0       0       0       0       0       0       0       2       2       0       1    F    F      0.00000000     -0.11938836      0.00000000       0      8.65011460     -1.76711512     -1.98188689   2910.85773629       1       1      0.00000000      0.00000000      0.00000000      0.00000000      0.00000000      0.00000000      0.00000000    -72.57407341    -23.87767174      0.23290610    -72.57407341    -23.87767174      0.23290610      2.85911880    F      6.17478194     -0.04646223     -0.98181465      0.00000000      0.00000000      0.00000000     -0.13530989      0.05428232     -0.70059536     -0.13571160      0.05454283     -0.70102660     -0.13614871      0.05490443     -0.70127374
Si            -68.23521626    -21.98605732      2.07638003      14       2       0       0       0       2       0       0       0       0       0       0       1       5       5       0       1    F    F      0.00000000     -0.11050753      0.00000000       0     -3.23010525      1.07552968      2.57652618   2910.85773629       1       1      0.04464027      0.00000000      0.00000000      0.00000000     -0.00136634      0.00015047      0.00050421    -69.17451395    -22.10357362      2.17694113    -69.20342364    -22.10150585      2.17895165      2.85911880    F      1.29413678      0.21300847     -0.29317222      0.00000000      0.00000000      0.00000000      3.72987980      0.02839819     -0.46690260      3.71420586      0.01055407     -0.47724546      3.69732279     -0.00743722     -0.48591390
Si            -68.49583701    -25.39153396     -1.71313945      14       1       0       0       1       1       0       0       0       0       0       0       0       3       3       0       1    F    F      0.00000000     -0.12826919      0.00000000       0     -3.31840749      0.59155638      2.14331330   2910.85773629       1       1      0.00000000      0.00000000      0.00000000      0.00000000      0.00000000      0.00000000      0.00000000    -69.20342364    -25.65383764      6.67148022    -69.20342364    -25.65383764      6.67148022      2.85911880    F     -4.90082385      2.52245424      2.15645992      0.00000000      0.00000000      0.00000000     -1.96068223     -0.44010962      0.37380455     -1.96062166     -0.44577184      0.37855417     -1.96082957     -0.45124746      0.38313421
O             -70.34917673    -19.53898647      3.86736948       8       4       1       0       1     112       0       0       0       0       0       0       0       2       2       0       1    F    F      0.00000000     -0.09870416      0.00000000       0     -3.52569421     -1.08607485     -1.24826635   1658.22137690       1       1      0.00000000      0.00000000      0.00000000      0.00000000      0.00000000      0.00000000      0.00000000    174.14996372    -19.74083123     12.25198915    174.14996372    -19.74083123     12.25198915     -1.42955940    F     -0.77153822     -2.85957254      4.99690693      0.11836460     -0.10927098      0.32955407     -0.58627098     -0.32000334      0.33972506     -0.58772165     -0.32367963      0.33867400     -0.58870782     -0.32742675      0.33773718
Si            -70.89151996    -20.11751876      2.47917039      14       1       1       0       1     109       0       0       0       0       0       0       0       3       3       0       1    F    F      0.00000000     -0.10162670      0.00000000       0     10.17071516      0.08526837      1.02859785   2910.85773629       1       1      0.00000000      0.00000000      0.00000000      0.00000000      0.00000000      0.00000000      0.00000000    173.60201789    -20.32533996     10.86379006    173.60201789    -20.32533996     10.86379006      2.85911880    F      5.03741810      0.24269215     -0.11017334      0.00000000      0.00000000      0.00000000     -0.61827916     -0.84482312      0.03808317     -0.61857457     -0.84688076      0.03470054     -0.61816999     -0.84849972      0.03176903
O             -68.78641867    -18.85785392     -2.61563802       8       8       0       0       0      44       0       0       0       0       0       0       1       2       2       0       1    F    F      0.00000000     -0.09566841      0.00000000       0      0.49738187      0.30589872     -0.02300655   1658.22137690       1       1      0.01260492      0.00000000      0.00000000      0.00000000      0.00083025      0.00030297     -0.00004150    -69.26617300    -19.13166681     -2.77145432    -69.22539943    -19.13368279     -2.79076918     -1.42955940    F      0.60146624      3.45276633      2.57556630     -0.04169293      0.18069977      0.16750277      0.56714385     -0.00675784      0.13087004      0.57213784     -0.01168545      0.13541030      0.57647934     -0.01690177      0.14018311
O             -67.62209413    -15.95193491     -2.30644996       8       5       0       0       1      41       0       0       0       0       0       0       1       2       2       0       1    F    F      0.00000000     -0.08094250      0.00000000       0      2.97550711     -2.46457926     -0.39330055   1658.22137690       1       1      0.01339068      0.00000000      0.00000000      0.00000000      0.00197067     -0.00123152     -0.00012776    -68.26516673    -16.18624295      6.13124959    -68.25918102    -16.18849945      6.15169694     -1.42955940    F     -2.72134520     -6.04918892     -5.77102580     -0.25862943     -0.29408923     -0.30511829      0.47437077      0.02726157      0.06481575      0.47377572      0.02677219      0.06384505      0.47205353      0.02678845      0.06303302
Si            -69.43633984    -18.35951368     -3.95940373      14       3       0       0       0      39       0       0       0       0       0       0       0       4       4       0       1    F    F      0.00000000     -0.09274587      0.00000000       0      2.47524209      0.40544626     -0.17399422   2910.85773629       1       1      0.00000000      0.00000000      0.00000000      0.00000000      0.00000000      0.00000000      0.00000000    -70.15364220    -18.54917406     -3.95940373    -70.15364220    -18.54917406     -3.95940373      2.85911880    F      0.40361778      0.13848746     -0.01484880      0.00000000      0.00000000      0.00000000      0.52127704     -0.14923081     -0.28374104      0.51175512     -0.16377193     -0.27925581      0.50197185     -0.17925694     -0.27506821
O             -70.34917673    -17.18004089     -3.40155728       8       7       0       1      -1      34       0       0       0       0       0       0       0       2       2       0       1    F    F      0.00000000     -0.08678758      0.00000000       0     -3.86190469      1.15731254      1.10334731   1658.22137690       1       1      0.00000000      0.00000000      0.00000000      0.00000000      0.00000000      0.00000000      0.00000000    -71.07590903    125.27046455    -11.78617695    -71.07590903    125.27046455    -11.78617695     -1.42955940    F     -0.68751409      2.86611954     -4.97575580      0.13907007      0.10557024     -0.32060824     -0.67239875      0.38062907     -0.44656947     -0.67821364      0.38026743     -0.44263120     -0.68392937      0.37992167     -0.43873428
Si            -70.89151996    -16.60150862     -2.01335818      14       2       0       1       0      29       0       0       0       0       0       0       0       3       3       0       1    F    F      0.00000000     -0.08386504      0.00000000       0     10.27611109      0.40727396     -1.07843660   2910.85773629       1       1      0.00000000      0.00000000      0.00000000      0.00000000      0.00000000      0.00000000      0.00000000    -71.62385486    125.85497327     -2.01335818    -71.62385486    125.85497327     -2.01335818      2.85911880    F      5.13021357     -0.00815490      0.07610505      0.00000000      0.00000000      0.00000000     -0.59385926      1.09070581     -0.03453693     -0.59373397      1.09288377     -0.03146698     -0.59381873      1.09445025     -0.02930656
O             -67.57768862    -20.73055359      2.69697959       8       9       0       0       0      18       0       0       0       0       0       0       1       2       2       0       1    F    F      0.00000000     -0.10454924      0.00000000       0      2.25161325     -0.55352604     -0.60011328   1658.22137690       1       1      0.01556323      0.00000000      0.00000000      0.00000000      0.00121911     -0.00042582     -0.00081358    -68.26002195    -20.90180027      2.69193232    -68.25918102    -20.90984868      2.69873493     -1.42955940    F     -1.94330003      6.03093905      4.63760979     -0.20066473      0.37270115      0.25549437      0.51203721      0.00665542      0.01027471      0.51299238      0.00219037      0.01311017      0.51334634     -0.00187064      0.01563275
O             -68.67859934    -17.79056324      3.16421683       8       6       0       0       1      15       0       0       0       0       0       0       1       2       2       0       1    F    F      0.00000000     -0.08982333      0.00000000       0      0.00771005     -0.62289587      0.41304270   1658.22137690       1       1      0.01223608      0.00000000      0.00000000      0.00000000      0.00037875     -0.00031053      0.00030160    -69.26126511    -17.95819267     11.63140190    -69.22539943    -17.96466534     11.64120106     -1.42955940    F      2.17793017     -2.50857197     -1.50676356      0.07225037     -0.11412178     -0.12492062      0.56161411     -0.02881459     -0.27481492      0.56453493     -0.03062997     -0.27338504      0.56695513     -0.03296404     -0.27214120
O             -69.95693197    -20.69605103     -1.49357491       8       9       0       0       0       9       0       0       0       0       0       0       0       2       2       0       1    F    F      0.00000000     -0.10454924      0.00000000       0     -4.94449354     -1.54020467     -0.47760622   1658.22137690       1       1      0.00000000      0.00000000      0.00000000      0.00000000      0.00000000      0.00000000      0.00000000    -70.67961224    -20.90984868     -1.49357491    -70.67961224    -20.90984868     -1.49357491     -1.42955940    F      2.27893597      4.97169649      3.30343893      0.30455921      0.31942051      0.19538048     -0.43444451      0.18428904     -0.20262866     -0.42963293      0.18708601     -0.19867282     -0.42476143      0.18964915     -0.19523652
O             -70.91327105    -18.93804596      1.40154065       8       8       0       0       0       8       0       0       0       0       0       0       0       2       2       0       1    F    F      0.00000000     -0.09566841      0.00000000       0     -6.68997841     -0.07028678     -2.01372212   1658.22137690       1       1      0.00000000      0.00000000      0.00000000      0.00000000      0.00000000      0.00000000      0.00000000    -71.64583064    -19.13368279      1.40154065    -71.64583064    -19.13368279      1.40154065     -1.42955940    F      7.40083980      3.16147391      1.28946344      0.72862524      0.18504846      0.14889146     -0.75927938     -0.21471763      0.63312835     -0.76199681     -0.21626249      0.63279592     -0.76417049     -0.21777648      0.63233352
O             -68.29734447    -17.32168463      0.65438282       8       7       0       0      -1       7       0       0       0       0       0       0       1       2       2       0       1    F    F      0.00000000     -0.08678758      0.00000000       0      1.38518872     -0.37204777      0.34462969   1658.22137690       1       1      0.01663691      0.00000000      0.00000000      0.00000000      0.00038012     -0.00048315     -0.00015371    -68.69593595    -17.38324220     -7.60255218    -68.65547782    -17.35751689     -7.59386711     -1.42955940    F     -5.20654688      0.90113289     -7.08350959     -0.35668088      0.03401942     -0.41499390      1.11888446      0.16664989     -0.52552235      1.12490140      0.17128111     -0.53026972      1.13049472      0.17558369     -0.53516009
O             -70.91327105    -17.78098141     -0.93572845       8       6       0       0       1       6       0       0       0       0       0       0       0       2       2       0       1    F    F      0.00000000     -0.08982333      0.00000000       0     -6.74845913     -0.12564040      2.07597172   1658.22137690       1       1      0.00000000      0.00000000      0.00000000      0.00000000      0.00000000      0.00000000      0.00000000    -71.64583064    -17.96466534      7.44889122    -71.64583064    -17.96466534      7.44889122     -1.42955940    F      7.40481601     -3.12296590     -1.36420560      0.73067382     -0.18085916     -0.16306661     -0.79483021      0.30484347     -0.58865649     -0.79611961      0.30686784     -0.58991360     -0.79708949      0.30857695     -0.59105208
O             -69.95693197    -16.02297634      1.95938711       8       5       0       0       1       5       0       0       0       0       0       0       0       2       2       0       1    F    F      0.00000000     -0.08094250      0.00000000       0     -4.56625556      0.98261543      0.16752089   1658.22137690       1       1      0.00000000      0.00000000      0.00000000      0.00000000      0.00000000      0.00000000      0.00000000    -70.67961224    -16.18849945     10.34400678    -70.67961224    -16.18849945     10.34400678     -1.42955940    F      1.81112187     -4.67546771     -3.09617632      0.26819656     -0.28404872     -0.16803681     -0.51774306     -0.25408852      0.13366621     -0.51781674     -0.25396094      0.12527432     -0.51832801     -0.25348746      0.11725830
O             -68.28596157    -19.66750830     -0.11330272       8       4       0       0       1       4       0       0       0       0       0       0       1       2       2       0       1    F    F      0.00000000     -0.09870416      0.00000000       0      2.59129759      1.25361630     -1.65143890   1658.22137690       1       1      0.01206522      0.00000000      0.00000000      0.00000000      0.00124712      0.00075156     -0.00046111    -68.67150089    -19.75021591      8.06891213    -68.65547782    -19.74083123      8.05967932     -1.42955940    F     -5.08794863     -2.94743210      7.49641465     -0.39201119     -0.18755366      0.46701685      1.22940807     -0.31541019      0.47628722      1.23012116     -0.32064139      0.47297803      1.23036077     -0.32554198      0.46960717
Si            -71.83202278    -18.35951368      0.23290610      14       3       0       0       0       3       0       0       0       0       0       0       0       2       2       0       1    F    F      0.00000000     -0.09274587      0.00000000       0      9.93539122      0.11425976     -0.07795882   2910.85773629       1       1      0.00000000      0.00000000      0.00000000      0.00000000      0.00000000      0.00000000      0.00000000    -72.57407341    -18.54917406      0.23290610    -72.57407341    -18.54917406      0.23290610      2.85911880    F      6.75245685      0.02955855     -0.05450545      0.00000000      0.00000000      0.00000000      0.13838430      0.03741633     -0.03169209      0.13778331      0.03723248     -0.03315534      0.13747640      0.03701497     -0.03469172
Si            -68.30139570    -16.69527120      2.08354194      14       2       0       0       0       2       0       0       0       0       0       0       1       5       5       0       1    F    F      0.00000000     -0.08386504      0.00000000       0     -3.16649854      1.55192447      1.39919082   2910.85773629       1       1      0.03886277      0.00000000      0.00000000      0.00000000     -0.00097757      0.00067383      0.00040809    -69.17849373    -16.77774015      2.17374242    -69.20342364    -16.77300817      2.17895165      2.85911880    F      0.83050806      0.33575670     -0.67255664      0.00000000      0.00000000      0.00000000      3.75933606      0.09579135     -0.88148529      3.76567797      0.11158143     -0.89075998      3.77100633      0.12537349     -0.89770760