3600
C44=0.35215345 OrigWidth=198.43724865 strain=0.08425590 nneightol=1.30000000 G=0.31207532 YoungsModulus=0.89115452 LatticeConstant=5.43094978 K=0.11273753 CleavagePlane="1       1       1" CrackPos="-31.47348942      0.02000745      1.92013071" CrackFront="0       1      -1" SurfaceEnergy=0.08485490 PoissonRatio_yx=0.26529291 is_cracked=F CrackDirection="-2       1       1" OrigHeight=91.71513926 C12=0.47690120 C11=0.94463734 sigma0="-0.00108724      0.00487557     -0.00000765" cutoff_factor=1.20000000 Lattice="398.43724865       0.00000000       0.00000000       0.00000000     291.71513926       0.00000000       0.00000000       0.00000000       3.84026142" Properties=species:S:1:pos:R:3:avg_sigma:R:9:Z:I:1
Si            -99.21862433    -48.93745050      0.00000000     -0.00000000      0.00000000     -0.00000000      0.00000000     -0.00000000      0.00000000     -0.00000000      0.00000000     -0.00000000      14
Si            -99.21862433    -46.58578027      0.00000000      0.00000000      0.00000000     -0.00000000      0.00000000      0.00000000     -0.00000000     -0.00000000     -0.00000000     -0.00000000      14
Si            -97.00144836    -45.80189019      3.84026142      0.00000000     -0.00000000     -0.00000000     -0.00000000      0.00000000     -0.00000000     -0.00000000     -0.00000000      0.00000000      14
Si            -97.00144837    -43.45021995      3.84026142     -0.00000000      0.00000000     -0.00000000      0.00000000     -0.00000000      0.00000000     -0.00000000      0.00000000     -0.00000000      14
Si            -98.11003635    -42.66632987      1.92013071     -0.00000000      0.00000000     -0.00000000      0.00000000     -0.00000000      0.00000000     -0.00000000      0.00000000     -0.00000000      14
Si            -98.11003634    -49.72134058      1.92013071     -0.00000000      0.00000000     -0.00000000      0.00000000     -0.00000000      0.00000000     -0.00000000      0.00000000     -0.00000000      14
Si            -95.89286038    -48.93745050      1.92013071     -0.00000000      0.00000000      0.00000000      0.00000000      0.00000000     -0.00000000      0.00000000     -0.00000000      0.00000000      14
Si            -95.89286036    -46.58578027      1.92013071      0.00000000      0.00000000     -0.00000000      0.00000000      0.00000000      0.00000000     -0.00000000      0.00000000      0.00000000      14
Si            -94.78427241    -42.66632987      3.84026142      0.00000001     -0.00000001     -0.00000000     -0.00000001      0.00000001      0.00000000     -0.00000000      0.00000000      0.00000002      14
Si            -94.78427240    -49.72134058      0.00000000     -0.00000000      0.00000000      0.00000000      0.00000000     -0.00000000     -0.00000000      0.00000000     -0.00000000     -0.00000000      14
Si            -93.67568436    -45.80189022      1.92013071      0.00000001     -0.00000000      0.00000000     -0.00000000     -0.00000000     -0.00000000      0.00000000     -0.00000000      0.00000001      14
Si            -93.67568414    -43.45022004      1.92013071      0.00000014      0.00000002     -0.00000000      0.00000002      0.00000001      0.00000000     -0.00000000      0.00000000      0.00000002      14
Si            -99.21862433    -39.53076955     -0.00000000     -0.00000000      0.00000000      0.00000000      0.00000000     -0.00000000     -0.00000000      0.00000000     -0.00000000     -0.00000000      14
Si            -99.21862433    -37.17909932     -0.00000000      0.00000000      0.00000000      0.00000000      0.00000000      0.00000000      0.00000000      0.00000000      0.00000000      0.00000000      14
Si            -97.00144836    -36.39520924      3.84026142      0.00000000     -0.00000000      0.00000000     -0.00000000      0.00000000      0.00000000      0.00000000      0.00000000      0.00000000      14
Si            -97.00144838    -34.04353900      3.84026142     -0.00000000     -0.00000000      0.00000000     -0.00000000     -0.00000000     -0.00000000      0.00000000     -0.00000000     -0.00000000      14
Si            -98.11003635    -33.25964892      1.92013071     -0.00000000      0.00000000      0.00000000      0.00000000     -0.00000000     -0.00000000      0.00000000     -0.00000000     -0.00000000      14
Si            -98.11003635    -40.31465963      1.92013071     -0.00000000     -0.00000000      0.00000000     -0.00000000     -0.00000000     -0.00000000      0.00000000     -0.00000000     -0.00000000      14
Si            -95.89286040    -39.53076955      1.92013071     -0.00000001      0.00000000      0.00000000      0.00000000     -0.00000000     -0.00000000      0.00000000     -0.00000000     -0.00000001      14
Si            -95.89286035    -37.17909931      1.92013071     -0.00000000     -0.00000000      0.00000000     -0.00000000     -0.00000000      0.00000000      0.00000000      0.00000000      0.00000000      14
Si            -94.78427243    -33.25964891      3.84026142      0.00000002     -0.00000002     -0.00000000     -0.00000002      0.00000001      0.00000000     -0.00000000      0.00000000      0.00000003      14
Si            -94.78427260    -40.31465961      0.00000000     -0.00000011     -0.00000002      0.00000000     -0.00000002     -0.00000001     -0.00000000      0.00000000     -0.00000000     -0.00000001      14
Si            -93.67568438    -36.39520928      1.92013071      0.00000000      0.00000000     -0.00000000      0.00000000     -0.00000002     -0.00000000     -0.00000000     -0.00000000      0.00000001      14
Si            -93.67568396    -34.04353920      1.92013071      0.00000024      0.00000004     -0.00000000      0.00000004      0.00000001      0.00000000     -0.00000000      0.00000000      0.00000003      14
Si            -99.21862433    -30.12408860     -0.00000000     -0.00000000      0.00000000     -0.00000000      0.00000000     -0.00000000     -0.00000000     -0.00000000     -0.00000000     -0.00000000      14
Si            -99.21862433    -27.77241837     -0.00000000      0.00000000      0.00000000     -0.00000000      0.00000000      0.00000000     -0.00000000     -0.00000000     -0.00000000      0.00000000      14
Si            -97.00144836    -26.98852829      3.84026142      0.00000000     -0.00000000      0.00000000     -0.00000000      0.00000000     -0.00000000      0.00000000     -0.00000000      0.00000000      14
Si            -97.00144839    -24.63685805      3.84026142     -0.00000000     -0.00000000     -0.00000000     -0.00000000     -0.00000000      0.00000000     -0.00000000      0.00000000     -0.00000000      14
Si            -98.11003635    -23.85296797      1.92013071     -0.00000000      0.00000000     -0.00000000      0.00000000     -0.00000000      0.00000000     -0.00000000      0.00000000     -0.00000000      14
Si            -98.11003635    -30.90797868      1.92013071     -0.00000000     -0.00000000     -0.00000000     -0.00000000     -0.00000000      0.00000000     -0.00000000      0.00000000     -0.00000000      14
Si            -95.89286042    -30.12408860      1.92013071     -0.00000002      0.00000001      0.00000000      0.00000001     -0.00000000     -0.00000000      0.00000000     -0.00000000     -0.00000002      14
Si            -95.89286033    -27.77241836      1.92013071     -0.00000000     -0.00000000      0.00000000     -0.00000000     -0.00000000     -0.00000000      0.00000000     -0.00000000      0.00000000      14
Si            -94.78427245    -23.85296796      3.84026142      0.00000003     -0.00000003      0.00000000     -0.00000003      0.00000002     -0.00000000      0.00000000     -0.00000000      0.00000005      14
Si            -94.78427281    -30.90797863     -0.00000000     -0.00000023     -0.00000005      0.00000000     -0.00000005     -0.00000002     -0.00000000      0.00000000     -0.00000000     -0.00000002      14
Si            -93.67568442    -26.98852833      1.92013071     -0.00000001      0.00000001      0.00000000      0.00000001     -0.00000003     -0.00000000      0.00000000     -0.00000000     -0.00000001      14
Si            -93.67568373    -24.63685835      1.92013071      0.00000035      0.00000006      0.00000000      0.00000006      0.00000001      0.00000000      0.00000000      0.00000000      0.00000004      14
Si            -99.21862433    -20.71740765     -0.00000000     -0.00000000      0.00000000     -0.00000000      0.00000000     -0.00000000      0.00000000     -0.00000000      0.00000000     -0.00000000      14
Si            -99.21862433    -18.36573742     -0.00000000      0.00000000      0.00000000      0.00000000      0.00000000      0.00000000      0.00000000      0.00000000      0.00000000      0.00000000      14
Si            -97.00144835    -17.58184734      3.84026142      0.00000000     -0.00000000     -0.00000000     -0.00000000      0.00000000      0.00000000     -0.00000000      0.00000000      0.00000000      14
Si            -97.00144839    -15.23017710      3.84026142     -0.00000000     -0.00000000      0.00000000     -0.00000000     -0.00000000     -0.00000000      0.00000000     -0.00000000     -0.00000000      14
Si            -98.11003635    -14.44628702      1.92013071     -0.00000000      0.00000000      0.00000000      0.00000000     -0.00000000     -0.00000000      0.00000000     -0.00000000     -0.00000000      14
Si            -98.11003635    -21.50129773      1.92013071     -0.00000000     -0.00000000     -0.00000000     -0.00000000     -0.00000000      0.00000000     -0.00000000      0.00000000     -0.00000000      14
Si            -95.89286044    -20.71740764      1.92013071     -0.00000003      0.00000001     -0.00000000      0.00000001     -0.00000001      0.00000000     -0.00000000      0.00000000     -0.00000003      14
Si            -95.89286032    -18.36573741      1.92013071     -0.00000001     -0.00000000     -0.00000000     -0.00000000     -0.00000000      0.00000000     -0.00000000      0.00000000      0.00000000      14
Si            -94.78427246    -14.44628701      3.84026142      0.00000004     -0.00000004      0.00000000     -0.00000004      0.00000003     -0.00000000      0.00000000     -0.00000000      0.00000006      14
Si            -94.78427304    -21.50129766     -0.00000000     -0.00000036     -0.00000008     -0.00000000     -0.00000008     -0.00000003      0.00000000     -0.00000000      0.00000000     -0.00000003      14
Si            -93.67568446    -17.58184738      1.92013071     -0.00000003      0.00000002      0.00000000      0.00000002     -0.00000004     -0.00000000      0.00000000     -0.00000000     -0.00000002      14
Si            -93.67568347    -15.23017752      1.92013071      0.00000045      0.00000008      0.00000000      0.00000008      0.00000001     -0.00000000      0.00000000     -0.00000000      0.00000006      14
Si            -99.21862433    -11.31072671     -0.00000000     -0.00000000      0.00000000      0.00000000      0.00000000     -0.00000000     -0.00000000      0.00000000     -0.00000000     -0.00000000      14
Si            -99.21862433     -8.95905647     -0.00000000      0.00000000      0.00000000     -0.00000000      0.00000000      0.00000000     -0.00000000     -0.00000000     -0.00000000      0.00000000      14
Si            -97.00144835     -8.17516639      3.84026142      0.00000000     -0.00000000      0.00000000     -0.00000000      0.00000000     -0.00000000      0.00000000     -0.00000000      0.00000000      14
Si            -97.00144841     -5.82349615      3.84026142     -0.00000002     -0.00000001     -0.00000000     -0.00000001     -0.00000000      0.00000000     -0.00000000      0.00000000     -0.00000000      14
Si            -98.11003635     -5.03960607      1.92013071     -0.00000000      0.00000000     -0.00000000      0.00000000     -0.00000000      0.00000000     -0.00000000      0.00000000     -0.00000000      14
Si            -98.11003635    -12.09461678      1.92013071     -0.00000001     -0.00000000      0.00000000     -0.00000000     -0.00000000     -0.00000000      0.00000000     -0.00000000     -0.00000000      14
Si            -95.89286047    -11.31072669      1.92013071     -0.00000004      0.00000002      0.00000000      0.00000002     -0.00000001     -0.00000000      0.00000000     -0.00000000     -0.00000004      14
Si            -95.89286027     -8.95905648      1.92013071      0.00000003      0.00000001      0.00000000      0.00000001     -0.00000000     -0.00000000      0.00000000     -0.00000000      0.00000000      14
Si            -94.78427274     -5.03960599      3.84026142     -0.00000007      0.00000002      0.00000000      0.00000002     -0.00000001     -0.00000000      0.00000000     -0.00000000     -0.00000006      14
Si            -94.78427333    -12.09461666      0.00000000     -0.00000052     -0.00000012      0.00000000     -0.00000012     -0.00000004     -0.00000000      0.00000000     -0.00000000     -0.00000004      14
Si            -93.67568399     -8.17516652      1.92013071      0.00000011     -0.00000007     -0.00000000     -0.00000007      0.00000001      0.00000000     -0.00000000      0.00000000      0.00000011      14
Si            -93.67568619     -5.82349640      1.92013071     -0.00000041     -0.00000009      0.00000000     -0.00000009     -0.00000004     -0.00000000      0.00000000     -0.00000000     -0.00000006      14
Si            -99.21862433      5.82349615     -0.00000000      0.00000000     -0.00000000      0.00000000     -0.00000000      0.00000000     -0.00000000      0.00000000     -0.00000000      0.00000000      14
Si            -99.21862433      8.17516639     -0.00000000     -0.00000000     -0.00000000      0.00000000     -0.00000000     -0.00000000      0.00000000      0.00000000      0.00000000      0.00000000      14
Si            -97.00144838      8.95905647      3.84026142     -0.00000000      0.00000000     -0.00000000      0.00000000     -0.00000000      0.00000000     -0.00000000      0.00000000     -0.00000000      14
Si            -97.00144832     11.31072671      3.84026142      0.00000001      0.00000000      0.00000000      0.00000000      0.00000000     -0.00000000      0.00000000     -0.00000000      0.00000000      14
Si            -98.11003634     12.09461678      1.92013071      0.00000000     -0.00000000      0.00000000     -0.00000000      0.00000000     -0.00000000      0.00000000     -0.00000000      0.00000000      14
Si            -98.11003634      5.03960607      1.92013071      0.00000000      0.00000000      0.00000000      0.00000000      0.00000000     -0.00000000      0.00000000     -0.00000000      0.00000000      14
Si            -95.89286033      5.82349614      1.92013071      0.00000002     -0.00000001      0.00000000     -0.00000001      0.00000001     -0.00000000      0.00000000     -0.00000000      0.00000002      14
Si            -95.89286046      8.17516639      1.92013071      0.00000000      0.00000000     -0.00000000      0.00000000      0.00000000      0.00000000     -0.00000000      0.00000000     -0.00000000      14
Si            -94.78427224     12.09461674      3.84026142     -0.00000001      0.00000002     -0.00000000      0.00000002     -0.00000002      0.00000000     -0.00000000      0.00000000     -0.00000004      14
Si            -94.78427189      5.03960602     -0.00000000      0.00000026      0.00000007      0.00000000      0.00000007      0.00000003     -0.00000000      0.00000000     -0.00000000      0.00000002      14
Si            -93.67568447      8.95905654      1.92013071     -0.00000000      0.00000000      0.00000000      0.00000000      0.00000003     -0.00000000      0.00000000     -0.00000000     -0.00000001      14
Si            -93.67568468     11.31072710      1.92013071     -0.00000034     -0.00000006     -0.00000000     -0.00000006      0.00000000      0.00000000     -0.00000000      0.00000000     -0.00000003      14
Si            -99.21862433     15.23017710     -0.00000000      0.00000000     -0.00000000      0.00000000     -0.00000000      0.00000000     -0.00000000      0.00000000     -0.00000000      0.00000000      14
Si            -99.21862433     17.58184734     -0.00000000     -0.00000000     -0.00000000     -0.00000000     -0.00000000     -0.00000000     -0.00000000     -0.00000000     -0.00000000      0.00000000      14
Si            -97.00144837     18.36573742      3.84026142     -0.00000000      0.00000000     -0.00000000      0.00000000     -0.00000000     -0.00000000     -0.00000000     -0.00000000     -0.00000000      14
Si            -97.00144833     20.71740766      3.84026142      0.00000001      0.00000000     -0.00000000      0.00000000      0.00000000      0.00000000     -0.00000000      0.00000000      0.00000000      14
Si            -98.11003634     21.50129773      1.92013071      0.00000000     -0.00000000     -0.00000000     -0.00000000      0.00000000      0.00000000     -0.00000000      0.00000000      0.00000000      14
Si            -98.11003634     14.44628702      1.92013071      0.00000000      0.00000000      0.00000000      0.00000000      0.00000000     -0.00000000      0.00000000     -0.00000000      0.00000000      14
Si            -95.89286033     15.23017709      1.92013071      0.00000003     -0.00000001      0.00000000     -0.00000001      0.00000001     -0.00000000      0.00000000     -0.00000000      0.00000003      14
Si            -95.89286043     17.58184733      1.92013071      0.00000001      0.00000000     -0.00000000      0.00000000      0.00000000      0.00000000     -0.00000000      0.00000000     -0.00000000      14
Si            -94.78427228     21.50129770      3.84026142     -0.00000001      0.00000002     -0.00000000      0.00000002     -0.00000001      0.00000000     -0.00000000      0.00000000     -0.00000003      14
Si            -94.78427176     14.44628692      0.00000000      0.00000040      0.00000009      0.00000000      0.00000009      0.00000003     -0.00000000      0.00000000     -0.00000000      0.00000003      14
Si            -93.67568438     18.36573744      1.92013071      0.00000002     -0.00000001      0.00000000     -0.00000001      0.00000003     -0.00000000      0.00000000     -0.00000000      0.00000002      14
Si            -93.67568461     20.71740795      1.92013071     -0.00000024     -0.00000004     -0.00000000     -0.00000004      0.00000000      0.00000000     -0.00000000      0.00000000     -0.00000002      14
Si            -99.21862433     24.63685805     -0.00000000      0.00000000     -0.00000000     -0.00000000     -0.00000000      0.00000000      0.00000000     -0.00000000      0.00000000      0.00000000      14
Si            -99.21862433     26.98852829     -0.00000000     -0.00000000     -0.00000000      0.00000000     -0.00000000     -0.00000000      0.00000000      0.00000000      0.00000000     -0.00000000      14
Si            -97.00144837     27.77241837      3.84026142     -0.00000000      0.00000000      0.00000000      0.00000000     -0.00000000     -0.00000000      0.00000000     -0.00000000     -0.00000000      14
Si            -97.00144834     30.12408860      3.84026142      0.00000001      0.00000000      0.00000000      0.00000000      0.00000000     -0.00000000      0.00000000     -0.00000000      0.00000000      14
Si            -98.11003634     30.90797868      1.92013071      0.00000000     -0.00000000      0.00000000     -0.00000000      0.00000000     -0.00000000      0.00000000     -0.00000000      0.00000000      14
Si            -98.11003634     23.85296797      1.92013071      0.00000000      0.00000000     -0.00000000      0.00000000      0.00000000      0.00000000     -0.00000000      0.00000000      0.00000000      14
Si            -95.89286034     24.63685804      1.92013071      0.00000002     -0.00000001      0.00000000     -0.00000001      0.00000001     -0.00000000      0.00000000     -0.00000000      0.00000002      14
Si            -95.89286041     26.98852828      1.92013071      0.00000001      0.00000000      0.00000000      0.00000000      0.00000000     -0.00000000      0.00000000     -0.00000000     -0.00000000      14
Si            -94.78427232     30.90797866      3.84026142     -0.00000000      0.00000001     -0.00000000      0.00000001     -0.00000001      0.00000000     -0.00000000      0.00000000     -0.00000002      14
Si            -94.78427191     23.85296790      0.00000000      0.00000030      0.00000007      0.00000000      0.00000007      0.00000002     -0.00000000      0.00000000     -0.00000000      0.00000002      14
Si            -93.67568435     27.77241837      1.92013071      0.00000003     -0.00000001      0.00000000     -0.00000001      0.00000002     -0.00000000      0.00000000     -0.00000000      0.00000002      14
Si            -93.67568452     30.12408879      1.92013071     -0.00000014     -0.00000002     -0.00000000     -0.00000002      0.00000000      0.00000000     -0.00000000      0.00000000     -0.00000001      14
Si            -99.21862433     34.04353900     -0.00000000      0.00000000     -0.00000000      0.00000000     -0.00000000      0.00000000     -0.00000000      0.00000000     -0.00000000      0.00000000      14
Si            -99.21862433     36.39520924     -0.00000000     -0.00000000     -0.00000000      0.00000000     -0.00000000     -0.00000000      0.00000000      0.00000000      0.00000000      0.00000000      14
Si            -97.00144837     37.17909932      3.84026142     -0.00000000      0.00000000     -0.00000000      0.00000000     -0.00000000      0.00000000     -0.00000000      0.00000000     -0.00000000      14
Si            -97.00144835     39.53076955      3.84026142      0.00000000      0.00000000      0.00000000      0.00000000      0.00000000     -0.00000000      0.00000000     -0.00000000      0.00000000      14
Si            -98.11003634     40.31465963      1.92013071      0.00000000     -0.00000000      0.00000000     -0.00000000      0.00000000     -0.00000000      0.00000000     -0.00000000      0.00000000      14
Si            -98.11003634     33.25964892      1.92013071      0.00000000      0.00000000      0.00000000      0.00000000      0.00000000     -0.00000000      0.00000000     -0.00000000      0.00000000      14
Si            -95.89286036     34.04353899      1.92013071      0.00000001     -0.00000001     -0.00000000     -0.00000001      0.00000000      0.00000000     -0.00000000      0.00000000      0.00000002      14
Si            -95.89286039     36.39520924      1.92013071      0.00000001      0.00000000     -0.00000000      0.00000000      0.00000000      0.00000000     -0.00000000      0.00000000     -0.00000000      14
Si            -94.78427235     40.31465962      3.84026142      0.00000000      0.00000000     -0.00000000      0.00000000     -0.00000000      0.00000000     -0.00000000      0.00000000     -0.00000000      14
Si            -94.78427208     33.25964887     -0.00000000      0.00000020      0.00000005     -0.00000000      0.00000005      0.00000002      0.00000000     -0.00000000      0.00000000      0.00000001      14
Si            -93.67568434     37.17909930      1.92013071      0.00000002     -0.00000001     -0.00000000     -0.00000001      0.00000002      0.00000000     -0.00000000      0.00000000      0.00000002      14
Si            -93.67568440     39.53076964      1.92013071     -0.00000004     -0.00000001     -0.00000000     -0.00000001      0.00000001      0.00000000     -0.00000000      0.00000000     -0.00000000      14
Si            -99.21862433     43.45021995      0.00000000      0.00000000     -0.00000000     -0.00000000     -0.00000000      0.00000000      0.00000000     -0.00000000      0.00000000      0.00000000      14
Si            -99.21862433     45.80189019     -0.00000000      0.00000000      0.00000000      0.00000000      0.00000000      0.00000000      0.00000000      0.00000000      0.00000000      0.00000000      14
Si            -97.00144836     46.58578027      3.84026142      0.00000000     -0.00000000     -0.00000000     -0.00000000      0.00000000      0.00000000     -0.00000000      0.00000000      0.00000000      14
Si            -97.00144836     48.93745050      3.84026142     -0.00000000     -0.00000000     -0.00000000     -0.00000000      0.00000000     -0.00000000     -0.00000000     -0.00000000     -0.00000000      14
Si            -98.11003634     49.72134058      1.92013071     -0.00000000      0.00000000     -0.00000000      0.00000000     -0.00000000     -0.00000000     -0.00000000     -0.00000000     -0.00000000      14
Si            -98.11003634     42.66632987      1.92013071      0.00000000      0.00000000     -0.00000000      0.00000000      0.00000000      0.00000000     -0.00000000      0.00000000      0.00000000      14
Si            -95.89286037     43.45021995      1.92013071      0.00000001     -0.00000000     -0.00000000     -0.00000000      0.00000000      0.00000000     -0.00000000      0.00000000      0.00000001      14
Si            -95.89286037     45.80189019      1.92013071      0.00000001      0.00000000     -0.00000000      0.00000000      0.00000000      0.00000000     -0.00000000      0.00000000      0.00000000      14
Si            -94.78427240     49.72134058      3.84026142     -0.00000000     -0.00000000      0.00000000     -0.00000000     -0.00000000     -0.00000000      0.00000000     -0.00000000     -0.00000000      14
Si            -94.78427226     42.66632985     -0.00000000      0.00000009      0.00000002     -0.00000000      0.00000002      0.00000001      0.00000000     -0.00000000      0.00000000      0.00000001      14
Si            -93.67568431     46.58578024      1.92013071      0.00000003     -0.00000001      0.00000000     -0.00000001      0.00000001     -0.00000000      0.00000000     -0.00000000      0.00000003      14
Si            -93.67568442     48.93745050      1.92013071      0.00000000     -0.00000000      0.00000000     -0.00000000      0.00000000     -0.00000000      0.00000000     -0.00000000     -0.00000000      14
Si            -92.56709644    -48.93745050      0.00000000     -0.00000000      0.00000000     -0.00000000      0.00000000     -0.00000000      0.00000000     -0.00000000      0.00000000      0.00000000      14
Si            -92.56709606    -46.58578027      0.00000000      0.00000038      0.00000009      0.00000000      0.00000009      0.00000003     -0.00000000      0.00000000     -0.00000000      0.00000001      14
Si            -90.34991519    -45.80189203      3.84026142      0.00000162     -0.00000059     -0.00000000     -0.00000059      0.00000053      0.00000000     -0.00000000      0.00000000      0.00000165      14
Si            -90.34991488    -43.45021886      3.84026142     -0.00000198     -0.00000080     -0.00000000     -0.00000080      0.00000001      0.00000000     -0.00000000      0.00000000      0.00000011      14
Si            -91.45850650    -42.66633072      1.92013071      0.00000024     -0.00000012     -0.00000000     -0.00000012      0.00000005      0.00000000     -0.00000000      0.00000000      0.00000009      14
Si            -91.45850846    -49.72134058      1.92013071     -0.00000000      0.00000000     -0.00000000      0.00000000     -0.00000000      0.00000000     -0.00000000      0.00000000     -0.00000000      14
Si            -89.24133249    -48.93745050      1.92013071     -0.00000008      0.00000047      0.00000000      0.00000047      0.00000048     -0.00000000      0.00000000     -0.00000000      0.00000008      14
Si            -89.24128853    -46.58577538      1.92013071      0.00000407      0.00000024     -0.00000000      0.00000024      0.00000076      0.00000000     -0.00000000      0.00000000      0.00000164      14
Si            -88.13276069    -42.66633950      3.84026142      0.00000500     -0.00000323     -0.00000000     -0.00000323      0.00000378      0.00000000     -0.00000000      0.00000000      0.00001038      14
Si            -88.13274451    -49.72134058      0.00000000     -0.00000000     -0.00000000     -0.00000000     -0.00000000     -0.00000000      0.00000000     -0.00000000      0.00000000     -0.00000000      14
Si            -87.02406807    -45.80192298      1.92013071      0.00001311     -0.00000357      0.00000000     -0.00000357      0.00000554     -0.00000000      0.00000000     -0.00000000      0.00001324      14
Si            -87.02395208    -43.45020924      1.92013071      0.00008052      0.00001814      0.00000000      0.00001814      0.00001249      0.00000000      0.00000000      0.00000000      0.00000950      14
Si            -92.56709793    -39.53076917     -0.00000000     -0.00000032      0.00000011     -0.00000000      0.00000011     -0.00000008     -0.00000000     -0.00000000     -0.00000000     -0.00000029      14
Si            -92.56709625    -37.17909928     -0.00000000      0.00000060      0.00000017      0.00000000      0.00000017      0.00000001      0.00000000      0.00000000      0.00000000     -0.00000000      14
Si            -90.34991242    -36.39521197      3.84026142      0.00000273     -0.00000098     -0.00000000     -0.00000098      0.00000082      0.00000000     -0.00000000      0.00000000      0.00000272      14
Si            -90.34991367    -34.04353688      3.84026142     -0.00000566     -0.00000196     -0.00000000     -0.00000196     -0.00000023     -0.00000000     -0.00000000     -0.00000000      0.00000005      14
Si            -91.45850501    -33.25965048      1.92013071      0.00000033     -0.00000018      0.00000000     -0.00000018      0.00000003     -0.00000000      0.00000000     -0.00000000     -0.00000001      14
Si            -91.45851653    -40.31466005      1.92013071     -0.00000065     -0.00000012      0.00000000     -0.00000012     -0.00000004     -0.00000000      0.00000000     -0.00000000     -0.00000031      14