3666
i=210000 time=3.50000000 E=-18.99254459 Library=all_res.CHARMM.lib QM_cell_core="12.00000000     14.00000000     15.00000000" QM_cell_extended="24.00000000     27.00000000     27.00000000" QM_list_changed=F Lattice="32.74191862       0.00000000       0.00000000       0.00000000      32.74191862       0.00000000       0.00000000       0.00000000      32.74191862" Properties=species:S:1:pos:R:3
N              -1.71850191     -2.45096830     -0.91973742
C              -1.04279419     -1.67341399     -1.99823420
C              -2.09008450     -1.56663364     -3.17505794
O              -1.60821605     -1.01958771     -4.18050922
C              -0.63164466     -0.14556940     -1.72743682
C               0.11253234     -0.01991261     -0.47406512
C               1.20154544     -0.88265493     -0.04103316
C              -0.24937710      1.16273320      0.20940321
C               1.88030368     -0.49848025      1.12444083
C               0.54514279      1.48700343      1.30483025
C               1.55451782      0.70394009      1.84843031
O               2.14960759      1.03942961      3.04367248
H              -2.03727880     -3.37015566     -1.30735727
H              -0.10582806     -2.14229852     -2.34540938
H              -0.05351220      0.12206177     -2.60087878
H              -1.50874669      0.54877853     -1.78475988
H               1.52117031     -1.77759712     -0.57266293
H              -0.99624569      1.87904584     -0.10225165
H               2.75457803     -1.15559216      1.37146284
H               0.26602712      2.44458922      1.85471840
H               1.89153173      1.94143392      3.34877590
H              -2.53361329     -1.83640978     -0.61406384
H              -1.09632443     -2.48447911     -0.12856469
O              -3.22603839     -2.05616241     -3.12648819
O              -8.72289248      3.84974127      5.44170599
H              -9.48376833      3.67546719      4.83516671
H              -9.19925076      4.28818199      6.12613288
O              13.53997815    -11.04904351      5.56057714
H              14.31605982    -11.58117991      5.85770140
H              13.36897648    -10.58926716      6.35749107
O               9.11759581    -16.09032939     -9.54840525
H               8.53139802    -15.34179140     -9.86359265
H               9.95278402    -15.68059547     -9.70964753
O             -12.42962598     -0.06195326    -15.89461769
H             -11.85917497     -0.72174864    -16.33042907
H             -11.79622493      0.67183147    -15.92848912
O               3.47373698     14.54589649      4.89300801
H               3.56377241     13.73647016      4.35981143
H               4.28536770     14.96920470      4.76110834
O             -16.02257348     16.08740711     -0.70286908
H             -15.92158171     15.16810901     -0.69010915
H             -16.32001309     16.20207735      0.20149334
O               2.02702685     -4.68813348     -8.92184300
H               1.56568031     -4.69250215     -9.81982491
H               1.92717390     -5.63209016     -8.68965144
O               9.65112655     13.84894372     12.24780646
H              10.16745844     14.42698550     11.64091176
H               9.95170479     13.96522136     13.17880247
O              -8.99831939     10.84501546     -7.13664302
H              -9.91278355     10.98277023     -6.79926597
H              -8.47366593     11.57568610     -6.77474906
O              -7.21532750     -4.35370716      7.93956107
H              -7.08848181     -4.39737169      6.95198176
H              -8.17835440     -4.23873948      7.99596004
O              -9.42951872      0.64666448      3.77539960
H              -9.09914612     -0.20798700      3.40529392
H             -10.15023244      0.21252810      4.27771433
O              11.02729911      1.35704948     -7.00687948
H              10.49716457      1.87696342     -7.63051423
H              10.92192854      1.80652944     -6.19715909
O              -4.93254425     -6.01742759      3.44715814
H              -5.52249545     -6.03974204      2.69874377
H              -4.29291194     -5.45715012      2.98273916
O              11.03894575      2.91324411    -14.87101355
H              10.62399085      2.06156995    -14.74699571
H              10.36589610      3.50216219    -14.51384480
O             -11.87120710    -14.23231651     -8.14659415
H             -11.69370818    -13.58114537     -8.90452287
H             -11.69792556    -13.52317330     -7.50711916
O              -7.57223047     -4.99013331     -7.19316693
H              -7.06774928     -5.53374654     -7.79454122
H              -8.28004177     -4.63208948     -7.73416154
O              -7.84283546     -0.89466782     -0.93103832
H              -6.89929043     -1.04073244     -1.27246489
H              -8.30309686     -0.45566346     -1.70881935
O              -5.99814621     -0.22025449      1.19320984
H              -6.87629004     -0.29509362      0.84316689
H              -6.23184647      0.57032441      1.76051775
O               5.75189088     -9.27832237     14.10065102
H               4.90861093     -9.74980926     14.24885238
H               6.02746469     -9.18671304     15.01045819
O              14.12705239     12.90626479     -1.17077816
H              13.35861903     13.54055671     -1.31083359
H              13.92010626     12.15596117     -1.79821465
O               0.41118284     15.73379475     -5.99391151
H              -0.38371129     15.99797143     -6.49211221
H               0.75510158    -16.18190224     -5.55419582
O               7.14833699      1.88889102      4.41015599
H               7.81728714      2.58254392      4.41745353
H               7.74668960      1.26894144      4.84173492
O               3.54368214     15.91177742     12.99079065
H               3.61819559     15.51687300     12.12222772
H               2.85980470    -16.20785852     12.85652336
O             -13.05674664     16.24142078     -7.13718401
H             -12.90591509    -15.75717711     -7.75881281
H             -13.55938337    -16.12317090     -6.44196387
O             -12.20178928      4.65488689    -13.80798664
H             -12.19983042      3.76347604    -13.31360076
H             -12.77297962      4.46022696    -14.56842919
O              12.45361772    -10.73360544     -6.23677166
H              12.12260211    -11.13436529     -7.07809661
H              13.00146881     -9.98071997     -6.62538111
O             -15.61624723      7.57129522     14.16726911
H              16.33694874      7.49372855     14.71530903
H             -14.88539738      8.02870116     14.65677321
O              -6.36052556    -15.28632757     14.06664067
H              -6.81489021    -15.52422966     13.25668569
H              -6.04338680    -14.38810960     13.83776482
O              -3.41769326     -9.42568736     15.72495723
H              -4.34064013     -9.69128238     15.52799779
H              -3.45504243     -8.44502446     15.92926933
O              -1.26875158     -2.82383359      7.97320049
H              -2.11702975     -2.82284607      8.37581208
H              -0.70692205     -2.59685155      8.78418014
O             -12.75556497    -14.12535036      1.25315255
H             -13.35861291    -13.67943068      0.67366197
H             -12.21373239    -13.44561379      1.60444233
O             -10.24404317     -2.84025041     -2.41876438
H             -10.53462652     -3.02428316     -3.36133066
H             -10.88375721     -3.43546424     -1.96714414
O              -8.32580616    -10.70603959     14.54094233
H              -9.05479312    -11.30163124     14.87413602
H              -8.73614093     -9.83161297     14.65045603
O               0.91838042     -7.29932175     11.73558423
H               0.46541653     -7.70930457     10.98167071
H               0.31155501     -6.55884973     11.79949497
O               9.68133175     14.12390005     15.09851964
H              10.27698735     13.61432513     15.62797105
H               9.43063390     14.87197833     15.62265068
O               1.23452737    -15.49189173     12.19843309
H               1.05181389    -15.15831082     11.30006759
H               1.48649167    -14.67450224     12.65882907
O              13.46289111      1.60737610     -9.06615278
H              13.59111834      1.29536602     -8.15986755
H              12.82117568      2.29878622     -8.88882270
O               1.56634230     -3.73878073     -3.67255094
H               0.76289923     -4.24072398     -3.38758600
H               2.26924082     -4.37014127     -3.43995389
O             -13.27332836     -2.03765267      2.85421192
H             -13.44197647     -2.55116343      2.05397522
H             -14.11926392     -1.59875067      3.07221731
O              15.30835372     14.61607654      9.19626205
H              15.49238177     14.59180948     10.17635713
H              15.84773166     13.89893862      8.83299241
O              12.89071807    -15.49738048      5.04620907
H              13.40101038    -15.11399140      5.80470722
H              12.53682859    -16.27653433      5.51806871
O              -7.29755085     11.14681523      7.87658231
H              -6.44589488     11.13337740      8.39730763
H              -7.26185912     11.98787029      7.33113428
O             -11.02356515     -8.69347738    -10.62188731
H             -11.30343818     -8.94105832    -11.55943457
H             -10.71405645     -9.52558771    -10.28196527
O              -9.40987744     -0.66036529     -9.59455243
H              -9.22970917      0.24288130     -9.88971330
H              -8.46557571     -0.95591196     -9.53428091
O              -5.98534479    -14.95364768     -7.99907473
H              -6.75362983    -15.13982931     -8.55852220
H              -5.47587473    -14.26355091     -8.50549141
O             -10.88030769    -12.36726216     -5.88612607
H             -10.18751977    -12.37964466     -6.52226489
H             -10.44129681    -12.93934754     -5.21362352
O               5.10383903     -7.02085299     -6.22673417
H               5.09756727     -7.61111889     -5.49734503
H               6.03558745     -7.03014174     -6.42627865
O              16.17656950     -8.83824866      6.64196006
H              15.39025429     -8.61391926      6.15697175
H              15.94637854     -8.20521834      7.34424854
O             -13.90338457     -7.76102236    -10.00947975
H             -13.74866507     -8.64547600    -10.33794322
H             -13.75079354     -7.28773052    -10.90141897
O              10.10073545     10.96886682     -2.88593674
H               9.49183123     11.48248239     -3.42074743
H              10.64983166     10.44962851     -3.55592815
O              13.82893126      2.86097325     -5.06472307
H              14.23733529      2.12979075     -5.58296160
H              12.86125430      2.77123651     -5.26098884
O             -14.63225890    -13.74084414      6.42398939
H             -14.28462117    -14.13415542      5.58890657
H             -14.17938725    -14.22207518      7.09669621
O              -3.59567604      1.36651748      6.37285697
H              -4.40564012      1.17636315      6.85750569
H              -2.90819312      1.29837469      7.06395708
O             -11.80577444      3.58147269     -6.38971090
H             -12.71968684      3.48731246     -6.01269264
H             -11.21886686      3.74827590     -5.59550519
O             -12.52450702     -8.69425698      7.62120977
H             -12.82420538     -7.84808602      8.00686099
H             -12.48458347     -8.46146162      6.67648299
O               8.54387695    -15.33867349     -3.05010294
H               8.60286404    -16.31420933     -2.81744887
H               7.84593530    -14.94956660     -2.49588873
O              11.36899796    -10.47017821    -11.34881457
H              10.93360291    -10.29524897    -12.17210873
H              12.28659715    -10.65028701    -11.61603217
O              -2.17725845    -14.00170262     10.25325818
H              -3.15021272    -14.25384655     10.21738142
H              -2.01448889    -14.15973151     11.18595289
O               8.73820129     10.70769624     -0.50162267
H               8.63765089     10.47620149     -1.46461685
H               8.80742471      9.78703222     -0.18351077
O              -2.57336250      7.01845209     -0.02918244
H              -1.76817768      7.04018007      0.45979307
H              -3.11880205      6.56771818      0.62803334
O              -1.09443488     13.08698343     16.08873656
H              -0.99413339     12.12340927     16.02230656
H              -1.04918705     13.25292819    -15.70365871
O               9.67543970     -2.02116630      2.45760310
H              10.34210494     -2.64938449      2.19260046
H              10.14065075     -1.39380969      2.97841475
O              -6.77840509      5.91128218      8.93026650
H              -7.06589684      6.27967554      8.08886898
H              -5.95198854      5.49080128      8.61255910
O              13.28762814     12.01682782     14.65075967
H              12.84345636     12.22066832     13.80507657
H              14.05143775     12.65136473     14.58670796
O              -9.76002658     -9.52402296      5.67684633
H             -10.64614725     -9.08046768      5.67795267
H              -9.19351165     -8.79755753      5.30838602
O               0.58112995     -5.62762525      8.95218868
H               0.70516703     -5.87131385      7.95062951
H               0.18527108     -6.45791247      9.30294953
O             -12.47095891      1.64380663     -8.23971187
H             -12.59386579      2.02461061     -9.10847320
H             -12.04946756      2.28154406     -7.66841138
O             -13.97638923      4.10002247     10.98295636
H             -13.68191672      4.15457497     10.03756205
H             -14.83495444      4.49813913     10.95671929
O              -1.68627253      9.82900252     -5.52918285
H              -2.50399757      9.41773027     -5.36280628
H              -1.61666888     10.41628966     -4.77255530
O             -13.58461762      7.85513521      9.75818038
H             -14.40722719      8.08078588     10.21316651
H             -13.26997330      7.23018868     10.40012062
O              -2.68302444     -5.83349544    -12.23405713
H              -3.02186803     -5.95097554    -11.36924238
H              -1.78916799     -5.48337090    -12.04792363
O               4.67847563     -0.50702945      3.28487215
H               3.84230071     -0.07134394      3.02533093
H               4.78620146     -1.26481681      2.66379512
O               9.03061496      0.51096417      6.01454200
H               9.93738180      0.57386864      5.54386252
H               9.39232912      0.46162746      6.91383944
O              -3.41003480      7.10720009      8.96722063
H              -4.07441376      7.03076053      9.63717111
H              -2.66688630      6.66554331      9.34746165
O              -2.62393713    -15.36751300      1.12842352
H              -3.08102805    -15.21388470      0.25265568
H              -3.09332588    -14.84059038      1.79860718
O              -0.66628217    -11.79950794     -4.02758290
H              -0.77871671    -11.28878948     -4.90162144
H               0.33007018    -11.74928563     -3.95673328
O              -9.77925703     -7.21402313     -1.47388862
H             -10.01695775     -7.88528156     -2.15663620
H              -9.04350288     -7.65245840     -1.01502421
O              10.78902464      9.95034497     -9.98819645
H               9.88425147      9.59871292     -9.82190244
H              11.09050480     10.13086218     -9.10363243
O              -6.56922093     -2.25807913      5.88109695
H              -7.50462877     -2.59646488      5.85167970
H              -6.38733353     -2.27275795      6.85354992
O              11.88965177     14.24438518     -1.48835011
H              12.10678423     14.87085393     -2.14606704
H              11.91808496     14.84534987     -0.76034936
O              14.37070351     16.28262992      1.10943600
H              14.36729344     15.32450155      1.23700209
H              13.52722471    -16.22914437      1.60550597
O             -15.53117900     -6.66048721     -6.24003562
H             -15.55891744     -7.59418790     -6.23931308
H             -14.67882821     -6.42918953     -6.53752112
O               4.30433189     14.71720642     -4.22420352
H               3.64259742     14.03251496     -4.31972463
H               4.90876803     14.49361452     -4.95424299
O             -11.62809127      9.39459250      4.38357578
H             -10.96239746      9.41945208      3.66288352
H             -12.32689337      8.72171587      4.09668565
O               2.42722060    -13.76054963     -9.82891840
H               1.96365804    -14.62571183     -9.70772001
H               3.07668842    -13.91514067    -10.54871245
O              15.42680847     -1.84644474      5.70760298
H              15.98224342     -1.11356908      6.01893091
H              15.03880831     -2.18565416      6.52289030
O              -1.17806872      5.61974436     15.05038177
H              -2.04531829      5.93111290     14.72693473
H              -0.78555348      6.53217910     15.12361990
O              16.04529536    -16.11382303     -6.58087732
H              15.50332846    -15.83409890     -7.31543241
H             -16.00214035    -15.49249783     -6.44792141
O               0.34110413      9.47901531    -12.09894399
H              -0.47221962      9.87192411    -12.46673837
H               0.53380299     10.20743789    -11.48802604
O               5.72473339     -4.81632667    -12.00755306
H               5.04244178     -5.46271541    -11.96193888
H               5.16983729     -4.05494762    -11.89789657
O              10.03388146      6.55643396     15.62383877
H               9.22865127      6.91828403     15.31870546
H               9.73818002      6.09800395    -16.31095122
O              13.91290717     10.90601350     -3.20013978
H              14.43870416     11.18607414     -4.00135960
H              14.41687180     10.12772955     -2.94324384
O             -14.04095667     -0.87018681     -9.87346462
H             -13.91284657     -0.07544915     -9.33875799
H             -13.15991140     -1.16630766     -9.94788912
O               2.08876034     -9.40507583    -12.16716890
H               2.67820082     -9.84015388    -12.76300777
H               1.91088761    -10.25738143    -11.59696097
O               0.75063853      1.79772199     -8.10897385
H               0.85881287      1.62681960     -9.02167859
H               1.07560251      2.71959858     -7.96576446
O              -6.11857070      3.81075022      4.52154074
H              -5.97742026      4.73719658      4.46007648
H              -7.10004185      3.75907315      4.81487091
O             -11.86068864      1.31734963      7.12930572
H             -11.74819225      1.94928714      6.40701016
H             -12.34639751      0.53385678      6.76912398
O             -15.73765735     -9.23972021     -8.82716836
H             -15.55019176     -9.93258859     -9.40262345
H             -15.31517277     -8.47155859     -9.23558096
O               6.19394046      0.83685903     15.72047950
H               6.03514791      0.86278209     14.74287567
H               7.06089157      0.59813102     15.80910421
O             -12.10514010      4.58251520      5.77572882
H             -11.87272604      3.90033565      5.11542610
H             -12.35353031      5.37154598      5.21737416
O               1.73118521     12.23222536      8.01753638
H               1.08160319     11.55710462      7.80788318
H               2.51779432     11.99042317      7.44285385
O               5.85352003     -5.58279468     10.01832161
H               4.89479735     -5.78406393      9.80941118
H               5.74936602     -5.51225907     10.97625119
O              12.85118391      2.15255148     15.48639083
H              13.25733746      2.94102050     15.04935641
H              13.05229613      2.20267785    -16.28710230
O              -1.55102641      5.00980349     -7.00630907
H              -1.56037873      4.09175929     -7.31595501
H              -0.57096400      5.26911557     -7.08320798
O             -16.26837092    -14.12946238     11.86410677
H              16.05435245    -14.93168119     11.50832403
H             -15.47072860    -14.04981964     11.38923584
O             -11.95461894     -0.78167014     -2.02611485
H             -11.14036103     -1.31935756     -1.85494451
H             -11.57313335     -0.22739180     -2.77987504
O               9.62568865     -9.40393586     -5.93658118
H              10.25077401     -9.76256788     -6.57619647
H              10.13957245     -8.78216937     -5.36989122
O               5.79743328     -1.77220544    -10.42989521
H               5.45073373     -1.94029443    -11.35072946
H               5.27591611     -2.46838923     -9.86600781
O               4.09004773     11.95033068      3.82606266
H               4.95863366     12.41180668      3.89550587
H               4.03032467     11.57864938      4.72302239
O              -5.08581823    -11.53461624      1.72999045
H              -4.89420097    -10.93033501      2.44862714
H              -4.56467815    -11.15416737      0.97737475
O               1.12130268      4.40148443    -13.75907839
H               0.66618687      4.20874374    -12.87808755
H               0.39174328      4.06308373    -14.38858343
O              -7.28092855    -10.01883044    -10.83802743
H              -7.81433932     -9.81261627    -11.64402907
H              -6.60987138     -9.31752415    -10.87046451
O              13.75392058      7.09852420     -4.43018970
H              13.58896392      6.50226845     -3.72479330
H              14.64077372      7.48491194     -4.28724353
O               1.29656243    -15.38021590    -14.55988471
H               0.65066384    -15.39868030    -15.28645059
H               1.25178970    -16.30573707    -14.26448115
O             -10.27932179      8.57728137      1.71675890
H             -10.35555695      7.59054205      1.86703243
H              -9.60778220      8.75637544      1.00070689
O              -4.52059982      4.72008794     -4.11735590
H              -4.36627135      3.94993883     -4.70290720
H              -3.69544653      4.72166087     -3.64717458
O               8.65151617    -14.32053219     10.89773589
H               8.20769726    -13.89897629     10.13856050
H               7.91667167    -14.80397278     11.41053627
O              12.06905319     -1.12547395     -7.79059236
H              11.65750147     -0.25709247     -7.83923562
H              12.49068756     -0.95891941     -6.92553426
O              -0.08331697      3.15724170     12.79727455
H               0.61743762      3.53543181     13.37363471
H              -0.72860407      2.95020801     13.47990521
O              -8.13871290      6.54025298     14.69157584
H              -8.87097769      6.29585587     14.15117909
H              -8.57693405      6.96999983     15.40776892
O              -6.38020167     -5.60611444      1.09295779
H              -6.07816951     -5.85185544      0.24713058
H              -6.90445714     -6.46527262      1.30849560
O               3.42728428    -12.61616475     -6.04083117
H               3.26408314    -13.53751924     -5.72871523
H               3.63254866    -12.18804388     -5.15991360
O              -2.60207397      1.22770093      2.31736903
H              -3.12632789      1.62307556      2.99701466
H              -1.89437806      1.00528031      2.95027293
O               0.71850350      8.08905701    -14.47772025
H               0.94286724      7.20387086    -14.29519135
H               0.66287476      8.42049830    -13.59847529
O              -4.28762650     14.45776652    -13.39153112
H              -4.96376033     13.88338424    -13.02762257
H              -4.83172973     15.10923724    -13.83325378
O               4.12289465      8.88938785     13.19088584
H               3.90972884      9.87378996     13.12025460
H               4.23498860      8.78169994     14.12545456
O              -7.71248389    -15.15262758     16.33862407
H              -8.59067592    -15.32996557     15.93099188
H              -7.20140271    -15.23720565     15.47766002
O             -15.64251410     14.76832303      2.34293716
H             -14.73250893     14.86566108      2.68799857
H             -16.17340092     15.20329299      3.10060880
O               3.98472482      4.15427359      6.83989693
H               3.23707793      4.10179701      7.49689922
H               3.98504742      5.12214239      6.71875154
O              13.43941561    -13.23107991     16.34819577
H              13.26240950    -14.02868141     15.85420631
H              13.88662101    -12.58795267     15.75325912
O               7.20710852     -9.81466122      4.45137393
H               7.12376091     -9.20950202      3.70838889
H               7.80701858     -9.30194136      5.05638830
O              -8.38756984     -6.62030677     14.59664080
H              -7.87354986     -7.22080491     14.02296178
H              -9.13515590     -7.15934575     14.90115497
O             -14.81417582     -4.05849803    -13.25126266
H             -14.36302645     -3.45130695    -13.84639499
H             -15.42843222     -3.47482592    -12.70484262
O              -2.70190577      2.89916839     -8.33550525
H              -2.16994372      2.03726533     -8.31644959
H              -3.62567446      2.58318007     -8.55761733
O               1.38029283     -0.99144215     -8.21367827
H               1.23374916     -0.09567745     -7.91125599
H               1.31049835     -1.42934891     -7.35194309
O             -15.56518901     12.02389455    -13.50007132
H              16.26618324     11.66890454    -13.37512633
H             -15.38662050     11.95842993    -12.52972823
O               1.06510828     -1.30717129     -4.93876084
H               1.37016879     -2.11517761     -4.63874081
H               0.12075062     -1.35080014     -4.99498017
O               9.82355470    -12.49248139     -6.75739132
H              10.42096925    -12.64685393     -7.53458658
H               9.89848693    -11.57945854     -6.54543022
O              15.14884428    -13.39232700     -5.99984176
H              15.12130476    -14.19966455     -5.49841913
H              14.53949099    -12.81172303     -5.50106975
O               2.86491856     -5.17811757     -6.05356929
H               3.59242111     -5.74415946     -6.39432611
H               3.03727146     -5.35881522     -5.11114943
O              11.72290449      6.20890784      6.81615484
H              11.98927218      6.86793087      6.10674411
H              12.13335636      6.56565335      7.59856234
O             -11.38227534     -1.88897174     11.90460996
H             -12.14131714     -2.46807150     11.78364535
H             -11.26282183     -1.94995396     12.84243488
O               0.82563274    -12.60800418      3.37164130
H               0.55993702    -13.52884758      3.18379301
H               0.00589445    -12.18636199      3.03362315
O               6.98232292    -16.09503386      2.15153625
H               6.23816049    -15.74155436      1.62646677
H               7.32529574     16.06309571      1.47241445
O              -7.74844432     -9.83750853     11.19514656
H              -6.88538260     -9.54691624     10.82047972
H              -8.03325683     -8.90163188     11.36951656
O               9.44224973     -5.52591097     -6.56740265
H              10.22118162     -6.10373229     -6.23668878
H               9.88428811     -4.67435434     -6.92809796
O              -3.47796113    -11.54609866     -9.61346960
H              -2.51381274    -11.51856179     -9.57417516
H              -3.66537789    -11.05530010    -10.45417440
O              -5.89687886      0.71206603     -5.74617264
H              -5.20750151      0.01606395     -5.80280535
H              -5.27317765      1.41806187     -5.64414359
O               1.15129917    -11.60354365    -10.83170534
H               0.69879729    -11.87636347    -11.62465283
H               1.49722720    -12.44095436    -10.41261705
O               4.39063249     -0.37315736     -2.71334059
H               3.69441315      0.26028358     -2.37474247
H               4.93488312     -0.45647999     -1.92109624
O              14.40033879     10.07935805     16.10975160
H              14.04771800     10.66531533     15.39970924
H              13.57757417     10.09091493    -16.04424034
O               5.92660109     -9.61861923      0.14205469
H               5.52498343     -8.92755469     -0.40549740
H               5.98580486     -9.18953890      0.99207957
O             -15.85506214     -3.87128886      4.15734861
H             -15.72961043     -4.76230896      4.55477028
H              16.27234889     -3.39758176      4.75996367
O             -11.80228340    -14.66273671    -12.66283574
H             -11.38396832    -15.14670110    -13.39000286
H             -12.70978377    -14.89400685    -12.87793138
O              -2.78988629      6.96877674     -5.35424787
H              -2.37603770      6.32067570     -5.92678714
H              -3.34127555      6.40215222     -4.80211373
O             -10.38874743      6.92957337     -1.57844388
H             -10.42853804      7.82212261     -1.93880613
H              -9.69121438      6.98222453     -0.96216472
O               7.60058268    -12.24216765      5.58522014
H               8.42268504    -12.13342813      5.15251856
H               7.19300805    -11.37030294      5.46362077
O               6.04814324     -0.58594065     -0.24581815
H               6.38476806     -1.43382516      0.09664159
H               6.47954885     -0.01487743      0.41531366
O              11.74518012      7.62644222    -13.81324826
H              11.93616466      6.76189101    -14.19305416
H              12.22052589      8.28888320    -14.34480389