    5187
  i="       0 " time="       0.000 " E="     -244.7408590693" Lattice="  32.61600000   0.00000000   0.00000000   0.00000000  54.14900000   0.00000000   0.00000000   0.00000000  32.61600000" Properties=species:S:1:pos:R:3
 Si       -11.7129337932      -21.6766142279        9.0599392953
 Si         9.9422370142      -21.5329914815        8.9692923656
 Si        -0.7795260722      -21.7818029748        9.1080873876
 Si        12.6156167831      -21.6779224959       11.7182134837
 Si        -9.1080737476      -21.7968101439       11.8490980902
 Si        -9.1106198924      -21.5385002383        0.9112149901
 Si        12.7130837237      -21.5685590962        0.8234103361
 Si         1.8477127656      -21.5177784326        0.9104909737
 Si         1.9983382405      -21.8671621858       11.7712691533
 Si         4.6138736863      -21.6151535580       14.4999460263
 Si        15.2869726013      -21.6245302222       14.4699407639
 Si        15.3215981839      -21.5924644591        3.6291877663
 Si         4.4736048568      -21.7138005709        3.6287596376
 Si        -6.3764144648      -21.5685583201        3.6482201269
 Si        -6.3185750470      -21.7687806972       14.5576493568
 Si         7.2172745702      -21.6207608415       11.6871278238
 Si       -14.4949161159      -21.7232313601       11.8095755192
 Si       -14.6445102277      -21.6682176446        0.8780635010
 Si         7.2933185696      -21.5777824536        0.9504971336
 Si        -3.6418213996      -21.5214559108        0.9484771790
 Si        14.0669767947      -22.9662490118       -0.4772935141
 Si        13.9957076073      -22.9146825532       10.2880479729
 Si        -7.8193546463      -22.9898890129       -0.5132384637
 Si        -7.6833408071      -22.9723803568       10.3635601550
 Si         3.2022915429      -23.0264582972       -0.3921862799
 Si         3.3759978017      -23.0732720782       10.2910889367
 Si       -16.0665640596      -23.0224409813        2.2819638172
 Si       -16.0036120689      -22.9850722443       13.0355198036
 Si        -4.9904595464      -22.9052279746        2.1939008260
 Si        -4.9271084982      -22.9823778815       13.0606852370
 Si         5.8925442679      -22.9677244861        2.3021885933
 Si         5.9536306544      -22.9806430522       13.0851685308
 Si       -14.6077397650      -24.2945327656       -1.6660896912
 Si       -14.4310458541      -24.1229199064        9.1694919168
 Si        -3.6656617324      -24.1110252812       -1.6124231045
 Si        -3.6470510981      -24.3375583549        9.1366105422
 Si         7.2806350714      -24.2119067921       -1.5584893293
 Si         7.2961984792      -24.2301116937        9.0631139996
 Si        15.2469543171      -24.4647721999        0.8591027641
 Si        15.4207370432      -24.3595620689       11.6076043244
 Si        -6.4156452792      -24.2621319014        0.8642407467
 Si        -6.3355875446      -24.3887756446       11.7018608923
 Si         4.5716943415      -24.3910495559        0.9922416815
 Si         4.5813835683      -24.4105667085       11.7854820356
 Si       -16.3035329295      -27.0276884075        8.3588567101
 Si        -5.3430191053      -27.0685314960        8.3610712410
 Si         5.5552118374      -27.0781752731        8.3921159689
 Si       -14.6512718403      -27.3799173160        0.8832104732
 Si       -14.4446208819      -27.3829352153       11.7873546788
 Si        -3.7966729953      -27.2416937287        0.9772412913
 Si        -3.6472266818      -27.3601949680       11.8304188129
 Si         7.1118402631      -27.4473285867        1.0146398439
 Si         7.2010836108      -27.3651459226       11.8096243946
 Si       -15.8407294734      -25.9500476022       -0.4439188011
 Si       -15.6921944790      -25.7381809767       10.3289192861
 Si        -4.9635759185      -25.7245795200       -0.4385998560
 Si        -4.8677875539      -25.8777593053       10.4736647565
 Si         5.9488899529      -25.8492156468       -0.3268290726
 Si         5.9899052287      -25.7937360831       10.3337990735
 Si        13.9109715270      -25.4661249256        2.4677564970
 Si        13.9747996794      -25.4772184924       13.0793198505
 Si        -7.8546288291      -25.3418175267        2.3754301506
 Si        -7.6777968907      -25.5855849535       13.1588531813
 Si         3.0389771309      -25.5172619006        2.4234723503
 Si         3.0870620236      -25.5470216229       13.2563726587
 Si        13.7256371764       25.2924459741        0.7253045502
  O        14.1022291621       25.8046166365       -0.7964492873
  H        14.4973101687       25.2715865794       -1.5083755745
 Si        13.7992558550       25.1308850002       11.5735408645
  O        14.0499984941       25.7016149036       10.0792487756
  H        13.9433980221       25.2380197239        9.2729498489
 Si        -8.1195466046       25.4520510068        0.6458766131
  O        -7.9593901565       25.9982774369       -0.8448630039
  H        -8.0553124775       25.3124431920       -1.6361489274
 Si        -8.0094817370       25.1940498334       11.5683451935
  O        -7.8334141399       25.5158329995        9.9654012028
  H        -8.5070373932       25.1679044960        9.3139858651
 Si         2.7489022117       25.3881365619        0.6806286965
  O         2.8511467497       25.9888390043       -0.8647758323
  H         2.2116058989       25.6235621956       -1.5356757102
 Si         2.8049860420       25.3339777675       11.5742750906
  O         2.9501550814       25.8340262121       10.0233305051
  H         2.8462681810       25.3415920053        9.1705378384
 Si       -16.2831682430       25.8534708032        2.5409469271
 Si       -16.2440118439       25.7441629134       13.3575595786
 Si        -5.4854861937       25.8898637939        2.5748648186
 Si        -5.3822429743       25.7070293186       13.3441603939
 Si         5.3639501044       25.6935795241        2.6019325803
 Si         5.5494721811       25.7708854897       13.3669063775
 Si        13.9656958385      -22.8736301911        5.0036189104
 Si        -7.6417541705      -22.8892251821        5.1314399054
 Si         3.1313033858      -23.0064932884        4.9886868191
 Si       -15.8771004636      -22.7224920534        7.7615004767
 Si        -4.9042791043      -22.7677775023        7.8129236381
 Si         5.9586753338      -22.9336336556        7.7482646563
 Si       -14.5573885964      -24.2755106749        3.6341114621
 Si        -3.5855724294      -24.2093528126        3.5977289422
 Si         7.2677909272      -24.2514639865        3.7095252762
 Si        15.3607478698      -24.0639155893        6.5180550301
 Si        -6.2933216279      -24.1433569327        6.5374940886
 Si         4.4788403346      -24.2257061835        6.5157004924
 Si        15.1436716835      -26.6986477097        3.8596803791
 Si        -6.6666213700      -26.5898290508        3.8267449911
 Si         4.2849821540      -26.8057036839        3.8844147174
 Si       -14.6252007268      -26.5921261121        6.4074991742
 Si        -3.7793191031      -26.6218861638        6.3219091807
 Si         7.1180877228      -26.6714166867        6.4435115540
 Si       -15.9851395568      -25.3705421033        5.0791266393
 Si        -5.1020117727      -25.3514104475        4.9765211480
 Si         5.8346463680      -25.4310377689        5.1130844127
 Si        14.3645740916      -25.9001539848        7.6783104189
 Si        -7.3694557135      -25.9010860076        7.7141788269
 Si         3.5096013158      -26.0131223982        7.7369623771
 Si         9.8732095515       24.7018457085        4.5095900656
 Si       -11.8417197663       24.8763073974        4.4999781762
 Si        -1.0287187028       24.7017671152        4.4447213481
 Si       -15.3494826429       24.8663440854        8.0908269609
  O       -16.3345783556       23.8981561812        8.9166906876
  H       -17.2743690291       23.6379108969        8.9599282300
 Si        -4.3549518639       24.8391936611        8.0334730394
  O        -5.2944608791       23.7156624164        8.7693552645
  H        -5.6918987122       22.8401503260        8.5461452411
 Si         6.6072262884       24.7890986901        8.2745192373
  O         5.6260211745       23.8700767756        9.1380711376
  H         5.8014065551       22.9024803552        9.2554349347
 Si         8.7467847922      -22.9251872988       -0.3288922871
 Si         8.6911873470      -22.9034054504       10.4170765740
 Si       -13.2046743237      -22.9480121380       -0.3484461324
 Si       -13.0646708553      -22.9325105939       10.5377240507
 Si        -2.2290302244      -22.8270343246       -0.3478988062
 Si        -2.2662773400      -23.0527819095       10.5294168955
 Si        11.3438698932      -22.9651454054        2.2137920641
 Si        11.2722108799      -23.0441609167       13.0539880082
 Si       -10.4919905512      -22.9121615510        2.2694428770
 Si       -10.5107319298      -23.0918812834       13.1390961208
 Si         0.5292369280      -22.8693914950        2.3175791690
 Si         0.4599191334      -23.0524286709       13.1451482532
 Si        12.8749550637      -24.4427974602       -1.8262726453
 Si        12.8541106041      -24.4914920490        8.8136126534
 Si        -9.0435050073      -24.3710560490       -2.0187121256
 Si        -8.8873536247      -24.4149930816        8.9664916524
 Si         2.0076532856      -24.3706502202       -1.9143738748
 Si         1.9793912286      -24.5130253735        8.9997740994
 Si        10.0422369982      -24.4706412999        0.9700688946
 Si         9.9307894042      -24.4690369603       11.6618157930
 Si       -11.8224569779      -24.4040523571        0.9177860574
 Si       -11.7614846107      -24.5330500786       11.8279515166
 Si        -0.8729807988      -24.3367907644        0.9980119596
 Si        -0.9196887445      -24.4450560827       11.7646193404
 Si        10.2022060035      -27.0795707790       -2.0598181605
 Si        10.1993822802      -27.1508485180        8.7599936670
 Si       -11.6711899721      -27.0872199153       -2.0468285983
 Si       -11.6477893411      -26.9856202348        8.8787227882
 Si        -0.7886360576      -26.9223244869       -1.9855039668
 Si        -0.7457597779      -27.1490418919        8.8572016399
 Si        12.4994007312      -26.8380027184        1.2748926758
 Si        12.5662356566      -26.9489015315       11.8973517858
 Si        -9.2853322404      -26.7651216949        1.2122529393
 Si        -9.1364070418      -26.9314254441       11.9666993455
 Si         1.6151856427      -26.7301542056        1.1808767592
 Si         1.6059170550      -26.8244731706       11.9852905748
 Si        11.4293844600      -25.7280511040       -0.5620341101
 Si        11.4377043486      -25.7454516649       10.1643119394
 Si       -10.3609546907      -25.7014774861       -0.6597410380
 Si       -10.2565266022      -25.7005369070       10.3760833575
 Si         0.4753871113      -25.5924728958       -0.5445217795
 Si         0.4258261799      -25.7077793029       10.3807806510
 Si         8.4312979559      -25.7825676930        2.2562386190
 Si         8.5316375475      -25.9014567997       13.1249355928
 Si       -13.2947978355      -25.8246812954        2.2159931574
 Si       -13.2387250572      -25.9207238953       13.1353822379
 Si        -2.4348504630      -25.7343662558        2.3085864017
 Si        -2.2710173973      -25.8875982721       13.1227790600
 Si         8.7452392636       25.5784744117       -0.5690862724
 Si         8.8371898982       25.6115835996       10.3180342210
 Si       -13.0287556270       25.5953981685       -0.5977181005
 Si       -13.0444287343       25.5636812874       10.2093841195
 Si        -2.1937914628       25.7001600413       -0.6383446856
 Si        -2.0749732712       25.5622730589       10.2252981988
 Si        10.8782167993       25.0645618384        1.7096428302
 Si        10.9769381103       25.0278479065       12.6171402697
 Si       -10.8260185789       25.1047785216        1.6830139518
 Si       -10.8333109347       25.0550170538       12.4290183536
 Si         0.0689360969       25.0164184161        1.6562915208
 Si         0.0915982045       24.9808820941       12.5489414429
 Si         8.6141307568      -22.8297837603        5.0437972669
 Si       -13.1980423610      -22.8901783383        4.9250842389
 Si        -2.2661028131      -22.9167540340        4.9742560463
 Si        11.4154259704      -22.8462333472        7.7989773403
 Si       -10.4232482162      -23.0145989181        7.6178532195
 Si         0.5638593200      -23.0475403819        7.7493308660
 Si        12.5018345668      -24.2343596254        3.7807333035
 Si        -9.1979946673      -24.1418160186        3.7566313781
 Si         1.6402381573      -24.3313783773        3.7926295871
 Si        10.0090130010      -24.1176891317        6.4540104227
 Si       -11.8686659796      -24.1652603689        6.2551244029
 Si        -0.9628849351      -24.1461525075        6.3983678195
 Si         9.3331637920      -27.1717909775        4.1079039396
 Si       -12.4929630325      -27.0637867923        4.0222761480
 Si        -1.4786486943      -27.1483193210        4.0510764112
 Si        13.5904032439       26.4897471301        6.2529077954
  O        14.2201413636       25.0980288148        6.8531573862
  H        14.0789538819       24.1243895963        6.5772424878
 Si        -8.1816933955       26.5202828485        6.3162150377
  O        -7.7780791461       25.0457109512        6.9461536157
  H        -6.9374424921       24.6538214117        7.0665175492
 Si         2.7017043585       26.3510492280        6.4286935974
  O         3.3087350195       24.9023183827        6.9663293266
  H         3.2729762804       23.9654579594        6.7980936229
 Si        11.0100808246      -25.7624623552        5.0121534321
 Si       -10.7063346934      -25.7361841233        4.9563510001
 Si         0.2003214418      -25.7321837367        5.2917538468
 Si         8.7352196014      -25.5610534752        7.7704359753
 Si       -13.0746634406      -25.4081929278        7.7882364215
 Si        -2.2284923620      -25.5668333047        7.7590933940
 Si       -14.8864841290       24.2473890938        5.0197529247
  O       -15.4390204687       22.6875716941        4.8215652446
  H       -16.0076538090       22.2239686178        4.1631421969
 Si        -4.0627220677       24.4082426690        4.9346806827
  O        -4.7855781412       22.8802870415        4.7541765280
  H        -4.4715143208       22.1277131198        4.1854673982
 Si         6.8791350347       24.2742100903        5.0965541084
  O         6.1600617877       22.7766458006        4.8587909372
  H         6.1220630185       22.0376247860        5.5406887716
 Si        11.3544899612       26.4589837171        6.5738188120
 Si       -10.4710939507       26.6244234491        6.6295929287
 Si         0.4372725411       26.3833096451        6.6120936859
  O        10.7790940668       25.1485261021        5.7804143989
  O       -10.9843761262       25.2602050850        5.8127377805
  O        -0.1006076952       25.0066584663        5.7236106414
  O        10.3845794460       24.3565766261        3.0370024053
  O        10.6093147438       24.3697244456       14.0143394938
  O       -11.2495060773       24.4411479925        3.1145585453
  O       -11.4913684001       24.4439069275       13.7580738259
  O        -0.3338905306       24.2855517348        2.9955967593
  O        -0.4573105921       24.2914051623       13.9089143101
  O        12.4073036063       24.5572881027        1.2265266345
  O        12.4359855971       24.4087079446       12.0393255924
  O        -9.4410796317       24.5375956172        1.1190498741
  O        -9.3440261950       24.3912928758       12.1155569759
  O         1.4629721532       24.5381993054        1.0106280678
  O         1.5569375644       24.5059150335       12.1120992124
  O        15.0072287664       25.4337073045        1.7130357993
  O        15.0514265526       25.3221206337       12.5553853339
  O        -6.8255346651       25.6614472713        1.6445553295
  O        -6.7085697971       25.6510517149       12.4166668290
  O         4.1005492795       25.6571119540        1.5609653305
  O         4.1694676699       25.5300956612       12.4948970288
  O         8.4376605543       24.0275076888        4.7966669568
  O       -13.3189949737       24.2286096439        4.6881047254
  O        -2.5009404463       24.1532664763        4.5939135762
  O        13.8476338763      -27.2458868565        4.6756812801
  O        -7.9040354473      -26.9116651346        4.8915735366
  O         3.1356265237      -27.3572023699        4.9201389981
  O         9.8692001185       24.8829859462        0.3962133175
  O         9.8778452775       25.0210173821       11.4894150415
  O       -11.9448916651       24.9349188056        0.5100950961
  O       -11.8367836055       25.0753957069       11.2247057327
  O        -1.1417310392       25.1516157836        0.5394315633
  O        -0.9322549448       24.9144857995       11.2646130725
  O        11.1596109988      -27.4734524309        2.0464870151
  O        11.4151369064      -27.5853581892       12.8748237073
  O       -10.6053354162      -27.4807909358        1.9514779597
  O       -10.4883843222      -27.5348668899       12.7033907371
  O         0.4527487011      -27.5540207691        2.0231187474
  O         0.4372299127      -27.5633181569       12.8463029775
  O       -13.9090590323       25.1863025449        8.8812466260
  O        -3.0501722244       25.2267411173        8.8618476055
  O        -3.1095337322       25.1607320829       -1.8959976223
  O       -13.9628109557       25.0959625162       -1.8284710449
  O         7.9081989590       25.2992799093        9.0667197702
  O         7.8302382494       25.1847909648       -1.9033468082
  O       -15.6007385236       25.1406446311        3.8369290491
  O        -4.7719711406       25.4319737491        3.9353950875
  O         6.1196549516       25.2000074140        3.9534869173
  O       -13.4861897938      -27.0183955674        5.3156183438
  O        -2.7554735965      -27.1300734311        5.1203398536
  O         8.2290790451      -27.1246626400        5.2793112103
  O       -15.2364555407       24.9243846943        6.5056991707
  O        -4.3189422310       24.8589681801        6.4558395715
  O         6.6380680717       24.7859464940        6.6251471876
 Si         1.8512138392      -21.6424593324        6.3175711475
 Si        12.6702730490      -21.4162174585        6.3606477083
 Si        -9.1164491955      -21.5625821660        6.3557300478
 Si         9.9896297320      -21.5012661928        3.6973229191
 Si       -11.8911906725      -21.5412004277        3.6755711182
 Si         9.9560258261      -21.6093228188       -1.7644782758
 Si        10.0234811327      -21.6514365757      -12.6531437042
 Si       -11.8090376559      -21.6284125442       -1.8273842336
 Si       -11.7239658090      -21.6556859336      -12.7371879969
 Si        -0.8300406044      -21.7101509612       -1.7630466907
 Si        -0.8311429051      -21.6535700148      -12.6867699461
 Si        12.6182374300      -21.7276761141       -9.9898640021
 Si        -9.1775655363      -21.7507911675       -9.8478722669
 Si         1.7530655922      -21.7394988966       -9.9424071882
 Si         4.4076718407      -21.6658443902       -7.1742184758
 Si        -6.4366127152      -21.6425331761       -7.0578109451
 Si       -14.5333093775      -21.6609657878      -10.0554460267
 Si        -3.6062661096      -21.6552052674       -9.9186845561
 Si        -7.6911874371      -22.9513056227      -11.2622189401
 Si        14.1018690393      -22.9607854116      -11.4340049446
 Si         3.2850910947      -23.1298841515      -11.2749459502
 Si        -5.0661090045      -22.9404004699       -8.5755673137
 Si       -16.0008770253      -22.9206042119       -8.7606917882
 Si         5.8180540634      -23.0926740618       -8.4698918271
 Si        -3.6235915318      -24.2494326515      -12.5391192274
 Si       -14.4684723711      -24.3102114414      -12.6665471162
 Si         7.4305206217      -24.2242809798      -12.5361523625
 Si        -6.3270337955      -24.3229469439       -9.9979448986
 Si        15.3412981711      -24.4856123218      -10.0767896563
 Si         4.6318358505      -24.5058205166       -9.9455579264
 Si       -16.2570280562      -27.1154367825       -2.5211166602
 Si        -5.3500707841      -27.0376951343       -2.5036367367
 Si        -5.4217301162      -27.0108218833      -13.3802760242
 Si       -16.1354493816      -27.0476157427      -13.3109714595
 Si         5.5249955247      -27.0324108044       -2.3631929790
 Si         5.6357782212      -27.1590241764      -13.4068847312
 Si        -3.7218645256      -27.3669325227       -9.7173019182
 Si       -14.6453705633      -27.3135179141      -10.0046736654
 Si         6.9452248386      -27.4528957224       -9.8031768648
 Si        -4.9241675337      -25.8422032144      -11.2379102556
 Si       -15.7197201855      -25.8495163693      -11.3578545104
 Si         6.0691914537      -25.7748343692      -11.3827460044
 Si        -7.7552976953      -25.5208834516       -8.5712901830
 Si        13.8943992814      -25.5076827306       -8.5731755694
 Si         3.1214434396      -25.6001337754       -8.5133492235
 Si        -7.9495709897       25.2247895436      -10.0902373646
  O        -7.4662739141       25.8629724666      -11.5454524049
  H        -8.0268352600       25.4891259318      -12.3090371048
 Si        13.6047523186       25.2294141593      -10.2082956159
  O        13.8689360914       25.8192642194      -11.7219965355
  H        14.6562015404       25.6179868223      -12.2649545219
 Si         2.6030910027       25.1518901501      -10.1867843974
  O         2.6337399110       25.6148712303      -11.7459067057
  H         2.2924332222       25.1904759321      -12.5550030688
 Si        -5.3875838389       25.6246618280       -8.1999018474
 Si       -16.3855547963       25.8050568236       -8.4527445751
 Si         5.2673828193       25.6531716043       -8.3869109933
 Si        13.9131084859      -22.9468643590       15.8806909579
 Si        -7.7658190469      -23.0557407110       15.9284665489
 Si        -7.8900905970      -22.9749175252       -5.8672640527
 Si        13.9898736042      -22.9552269923       -5.7739707678
 Si         3.1155640871      -23.0271632120       -5.8053911361
 Si         3.1782977597      -23.0102817727       15.8399379132
 Si       -15.9332801230      -22.9799783262      -13.9863237552
 Si        -4.8916005909      -22.8239695511      -13.9676361633
 Si        -5.0342651799      -22.8625277266       -3.1523982923
 Si       -15.8450728905      -22.8494113098       -3.0739572772
 Si         5.9688245736      -22.9402389372       -2.9995998267
 Si         6.1405955207      -22.9290243336      -13.9790753356
 Si       -14.5914510564      -24.3551865443       14.4135107879
 Si        -3.5101517423      -24.2663072419       14.4352871623
 Si        -3.5553575865      -24.1650244291       -7.3836576883
 Si       -14.6072401276      -24.1615678929       -7.3474434154
 Si         7.2449455496      -24.3867999250       -7.2210481844
 Si         7.3235192191      -24.3413359881       14.3509111601
 Si        15.2401649672      -24.2906481411       17.2894464432
 Si        -6.2134177916      -24.1996979996       17.2841369547
 Si        -6.4198640481      -24.1978661037       -4.4389927466
 Si        15.3619360255      -24.1274128631       -4.3942076974
 Si         4.4469857423      -24.2412018370       -4.3839870648
 Si         4.6545003604      -24.2695536062       17.2636812438
 Si        15.1752529112      -26.7769247527       14.5780212083
 Si        -6.4307519202      -26.7729972371       14.6212930222
 Si        -6.4775051799      -26.7457604874       -7.0754689293
 Si        15.3084516526      -26.6626892387       -7.1227091355
 Si         4.2399533891      -26.8267589578       -6.9800178794
 Si         4.3030330131      -26.8125683188       14.6507601752
 Si       -14.6630696933      -26.6992534946       17.2057056267
 Si        -3.7140687144      -26.8023809032       17.2491135582
 Si        -3.7089443483      -26.5767241498       -4.3834318406
 Si       -14.7276463209      -26.6080128915       -4.5643159670
 Si         7.1527754167      -26.6286480195       -4.3358603611
 Si         7.2470659689      -26.6526531469       17.2446492988
 Si       -16.0894173998      -25.4440183044       15.8419917931
 Si        -5.0480134468      -25.4279423463       15.8299576133
 Si        -5.0003021071      -25.2835786024       -5.8703260405
 Si       -15.9418633415      -25.2706885053       -5.8555414170
 Si         5.7001585915      -25.5366630613       -5.8087439149
 Si         5.8455989843      -25.4948906437       15.7386199097
 Si        14.3855308020      -26.0531237474      -14.0590608869
 Si        -7.4290210806      -25.7245671089       18.4919728425
 Si        -7.4256190922      -25.9480246481       -3.2262820556
 Si        14.3338053526      -25.8155733784       -3.2252900991
 Si         3.4849672716      -25.9621055830       -3.1104074206
 Si         3.5614243966      -25.8654207320       18.5992623042
 Si         9.9470621390       24.6688625790       15.4547964733
 Si       -11.9327562569       24.6598393697       15.2434607937
 Si       -11.9240306512       24.7502188841       -6.4240424489
 Si         9.8747924100       24.6969225413       -6.2666819653
 Si        -1.1320797086       24.6110354254       -6.3523213621
 Si        -0.9413467030       24.7246856224       15.3772733843
 Si       -15.1844359447       24.8307659180      -13.5454070173
  O       -16.0165650792       23.7186452224      -12.7131547035
  H        15.6875647855       23.7700041894      -12.3335668840
 Si        -4.3811794547       24.8184365427      -13.5766423622
  O        -5.2694642898       23.5987376042      -12.9620776205
  H        -5.6200175143       23.6336226858      -12.0533681856
 Si        -4.4891466795       24.9429268164       -2.7331205199
  O        -5.5685093269       23.9203166739       -1.9920345550
  H        -5.3646784780       23.3361972594       -1.1753806767
 Si       -15.2153982936       24.7461905671       -2.8105034519
  O       -16.2824275138       23.5902890888       -2.2615634904
  H       -16.0343109389       22.6373436267       -2.2432395384
 Si         6.5100946068       24.8075401977       -2.6765851178
  O         5.6221028540       23.7550917903       -1.8378441331
  H         5.6727502118       23.5959657057       -0.9016521540
 Si         6.5909659160       24.6996259965      -13.5436251284
  O         5.5008794881       23.7914736705      -12.7894776941
  H         5.6112993956       23.3648371408      -11.8811168518
 Si       -13.1453947033      -22.9721137588      -11.3306804447
 Si         8.6484705641      -22.8443401189      -11.2340618941
 Si        -2.1841081247      -23.0120913368      -11.2226375140
 Si       -10.6086817311      -23.0231073844       -8.5972365471
 Si        11.2030888918      -23.0050685561       -8.6706960164
 Si         0.4169850639      -23.1709854244       -8.4896943788
 Si        -8.9388757129      -24.3705888134      -12.7090891497
 Si        12.9010744285      -24.4666722426      -12.7563482745
 Si         1.9589015051      -24.5259848827      -12.6620314513
 Si       -11.8286024480      -24.4432162745       -9.9957802931
 Si         9.8374492091      -24.3995010194       -9.9958380269
 Si        -0.9936834750      -24.5114137817       -9.8468599942
 Si       -11.5962470424      -27.0916945921      -13.0131239679
 Si        10.2277507247      -27.1393072470      -12.8556020478
 Si        -0.7026974046      -27.1537654245      -12.9297673620
 Si        -9.0872718709      -26.9159810007       -9.7290910088
 Si        12.4551396724      -26.9161397094       -9.6653637196
 Si         1.5588240306      -26.9805956555       -9.6120562306
 Si       -10.3319592747      -25.7595221755      -11.3991117986
 Si        11.4111786218      -25.6710413041      -11.3545215457
 Si         0.3972852483      -25.8526096985      -11.3361566814
 Si       -13.3446146339      -25.7833870882       -8.6185037683
 Si         8.4753091463      -25.9022098056       -8.6266745936
 Si        -2.4337797394      -25.8600987447       -8.4802236121
 Si       -12.9178907845       25.6887067144      -11.5140425342
 Si         8.6373482605       25.6339157783      -11.3109360553
 Si        -2.1918491658       25.6236225978      -11.4167587731
 Si       -10.7948258860       24.9931042262       -9.2609383403
 Si        10.7152469792       25.0547130100       -9.1594739904
 Si        -0.0907042404       24.9339970964       -9.1864381388
 Si         8.5121400787      -22.9540545030       15.8862638126
 Si       -13.2817875398      -22.9280698344       15.8162223791
 Si       -13.2046234538      -22.8580905498       -5.9155287509
 Si         8.5968841356      -22.9337373705       -5.8001491632
 Si        -2.3576773316      -22.8681814446       -5.8818956532
 Si        -2.1509518682      -22.8975731687       15.7936716230
 Si        11.4398343406      -22.9766046768       18.6898079874
 Si       -10.3582830829      -23.0495986535       18.5944360408
 Si       -10.5257529167      -22.9563289228       -3.1360852312
 Si        11.4778234339      -22.9815896903       -3.0101799662
 Si         0.5024624059      -22.9788909346       -3.1568477222
 Si         0.6412349423      -23.0615960545      -13.9885643729
 Si        12.5094808146      -24.3318887567       14.5617098421
 Si        -9.2062630424      -24.3958470012       14.5604092422
 Si        -9.3163024044      -24.4304145644       -7.1625542957
 Si        12.5726309690      -24.2330375734       -7.1285374142
 Si         1.6706928562      -24.4980962263       -7.0057597662
 Si         1.7142632562      -24.4118159721       14.6779109413