    5187
  i="       0 " time="       0.000 " E="     -244.7408590693" Lattice="  32.61600000   0.00000000   0.00000000   0.00000000  54.14900000   0.00000000   0.00000000   0.00000000  32.61600000" Properties=species:S:1:frc:R:3
 Si        -0.0216524713       -0.0059955732       -0.0114704171
 Si         0.0064460142        0.0057880161        0.0235200415
 Si        -0.0224340435        0.0132285763        0.0089592140
 Si         0.0016073677        0.0116693912        0.0052985972
 Si         0.0065963486        0.0194357845       -0.0107695869
 Si         0.0041757289       -0.0147662204       -0.0059915786
 Si        -0.0019839195       -0.0113403284        0.0243164583
 Si        -0.0065857886       -0.0259414008       -0.0146971672
 Si        -0.0147513754        0.0022238303       -0.0020915773
 Si        -0.0254081937       -0.0155146982       -0.0115261425
 Si         0.0101324864        0.0024251536        0.0152506072
 Si        -0.0048993861        0.0072884283        0.0011449680
 Si        -0.0064318675        0.0233438045       -0.0088516141
 Si         0.0176899625       -0.0094091315        0.0021785267
 Si        -0.0002825926        0.0092878662        0.0050538115
 Si         0.0089676044        0.0127974539        0.0001562199
 Si        -0.0127714945        0.0207492906        0.0067097121
 Si        -0.0184855312        0.0129465708        0.0088919730
 Si        -0.0009330896       -0.0072645866        0.0053779661
 Si         0.0026006371       -0.0034369728       -0.0084299826
 Si        -0.0020186729       -0.0020404769        0.0010625315
 Si         0.0105136622       -0.0252219042        0.0004487065
 Si         0.0001127010        0.0102097467       -0.0035004721
 Si         0.0096630595        0.0004124303        0.0048903385
 Si         0.0074260361        0.0154167839       -0.0001733273
 Si        -0.0108428729        0.0016622780        0.0027295486
 Si         0.0209372008       -0.0026215786       -0.0165950130
 Si         0.0141488314       -0.0049614589        0.0154888842
 Si        -0.0103937656       -0.0016223115        0.0171065230
 Si        -0.0147708760       -0.0132238091        0.0066058717
 Si         0.0105150310       -0.0000565843       -0.0059353382
 Si        -0.0120886123        0.0009850994       -0.0043832086
 Si         0.0078725407        0.0034758121        0.0054254570
 Si        -0.0150725381       -0.0002866210       -0.0158443331
 Si        -0.0008853221       -0.0106742695       -0.0155920156
 Si         0.0069832070        0.0129394344        0.0073643988
 Si         0.0092340294       -0.0226493193       -0.0020442982
 Si         0.0144994950       -0.0124595126        0.0233609530
 Si         0.0258268309        0.0056278311        0.0024436004
 Si        -0.0142734495        0.0063238043       -0.0094179176
 Si         0.0065828225       -0.0040803707       -0.0022246911
 Si         0.0148242069        0.0075273174       -0.0016269743
 Si        -0.0122298542        0.0008972738       -0.0038814708
 Si         0.0066257673       -0.0020131207       -0.0070512390
 Si         0.0133980084        0.0012779519        0.0170698061
 Si        -0.0074938944        0.0003759716        0.0113488028
 Si        -0.0105526566       -0.0120691354        0.0083175988
 Si         0.0203030460        0.0047477914        0.0226274469
 Si        -0.0419604750        0.0106411357       -0.0112571904
 Si         0.0057052859        0.0034276486        0.0008788581
 Si         0.0063226902       -0.0073995858        0.0020654679
 Si         0.0086870135        0.0109555352        0.0077522965
 Si        -0.0052419828        0.0148245394       -0.0091857585
 Si        -0.0147040212        0.0221559551       -0.0111340091
 Si         0.0093399948       -0.0204476455        0.0089090393
 Si         0.0004115586       -0.0038023616       -0.0049749923
 Si        -0.0056928084        0.0013653324       -0.0167394139
 Si         0.0150042931        0.0044132013       -0.0059059474
 Si         0.0173188912       -0.0038354537        0.0187409077
 Si        -0.0054236827        0.0064686007       -0.0211080575
 Si        -0.0091459410       -0.0109482514        0.0032675554
 Si         0.0034140013       -0.0022619666       -0.0178485272
 Si        -0.0192725477        0.0142093378        0.0022547066
 Si         0.0203527484        0.0069475223        0.0011428819
 Si         0.0002724654        0.0038569682       -0.0247137510
 Si         0.0182782212        0.0309156805        0.0025918123
  O        -0.0205415212        0.0074305802        0.0255368540
  H         0.0032766458       -0.0084603761       -0.0082358227
 Si        -0.0187816199        0.0188965663       -0.0036374373
  O        -0.0005166313        0.0267373315        0.0374798653
  H        -0.0046612278       -0.0244226384       -0.0402387162
 Si         0.0016217531       -0.0369551608        0.0395696387
  O        -0.0034650150       -0.0405254761       -0.0554873974
  H         0.0054729613        0.0443919225        0.0431902356
 Si         0.0018347693       -0.0132830643       -0.0061735443
  O        -0.0210591430       -0.0074163476        0.0179167936
  H         0.0092659555        0.0051658889        0.0033925009
 Si         0.0405067057        0.0372933247       -0.0280714892
  O        -0.0083590745       -0.0143063016        0.0154525271
  H         0.0066371759        0.0044134737        0.0017157872
 Si         0.0360411824       -0.0008037970       -0.0049348489
  O        -0.0037284550        0.0006017815        0.0088549011
  H        -0.0003556772       -0.0035134052        0.0045882513
 Si        -0.0080903662       -0.0126140568        0.0116846548
 Si         0.0398312307       -0.0018411127        0.0300838734
 Si        -0.0236323964        0.0055562423       -0.0215699526
 Si         0.0116140789       -0.0060444111       -0.0012066863
 Si         0.0027431483        0.0002779178       -0.0128145089
 Si        -0.0094179380       -0.0138686130        0.0130221043
 Si        -0.0065855406        0.0051407618        0.0192126605
 Si        -0.0237658130        0.0013531782       -0.0168382915
 Si         0.0001221530       -0.0071400284        0.0122011607
 Si         0.0158989323       -0.0204098334        0.0179190348
 Si         0.0054344495       -0.0161654011        0.0012685147
 Si        -0.0114952725        0.0148668231       -0.0077738984
 Si        -0.0044852119        0.0000801208       -0.0236187219
 Si        -0.0266612040        0.0040171353       -0.0062757691
 Si        -0.0007693094        0.0018595755       -0.0120443402
 Si        -0.0110075832       -0.0128610545       -0.0196469442
 Si        -0.0032515247       -0.0020605968       -0.0070023815
 Si        -0.0034617464       -0.0027590529       -0.0121874335
 Si         0.0189655761       -0.0143610854       -0.0150936372
 Si        -0.0022511273       -0.0109841193        0.0079422007
 Si         0.0079831206        0.0105615871        0.0074419965
 Si         0.0132650822        0.0267365956        0.0181348218
 Si         0.0189659423        0.0026039379       -0.0022609595
 Si         0.0400334022       -0.0017995235       -0.0093472481
 Si        -0.0105799177        0.0071557516       -0.0008699058
 Si         0.0017132265        0.0151063097        0.0013022849
 Si        -0.0232809061        0.0032661197       -0.0205628446
 Si        -0.0015392763        0.0008048250       -0.0241060399
 Si         0.0003441911        0.0032409287        0.0068137395
 Si        -0.0093624467        0.0067082922        0.0044865773
 Si        -0.0021271905        0.0070061662        0.0212161891
 Si        -0.0292710301       -0.0101426523        0.0378949788
 Si         0.0393389133       -0.0009822660       -0.0283041723
 Si         0.0336747964        0.0138898513        0.0263516867
  O         0.0160960571       -0.0029685260        0.0066882016
  H        -0.0124604568       -0.0013362692       -0.0041585894
 Si        -0.0100915785       -0.0211097199        0.0306899658
  O        -0.0042380394        0.0112647433        0.0059718262
  H         0.0044023898       -0.0007017875       -0.0052464804
 Si         0.0100975860        0.0213255362       -0.0324593896
  O        -0.0028104025       -0.0155945823       -0.0043399756
  H        -0.0010479586        0.0030466439       -0.0030523436
 Si        -0.0102214495       -0.0081781370        0.0159411986
 Si        -0.0102562031       -0.0076311193       -0.0085562527
 Si         0.0144345742       -0.0095642405       -0.0186768854
 Si         0.0237588959       -0.0184735086       -0.0008432106
 Si         0.0064979916       -0.0243908093        0.0197272660
 Si         0.0134536828       -0.0007482688       -0.0303272906
 Si        -0.0105676767        0.0201872044        0.0158171207
 Si        -0.0153298832       -0.0053512723        0.0040349620
 Si        -0.0129306261        0.0071260566        0.0017101278
 Si         0.0065999645       -0.0061428718        0.0082955571
 Si        -0.0185646242       -0.0122956945       -0.0002143105
 Si         0.0033673089       -0.0120701260        0.0054814108
 Si         0.0014084753       -0.0021692647       -0.0060280846
 Si        -0.0065338886        0.0261145149        0.0282062407
 Si         0.0205158198       -0.0133302472        0.0077195627
 Si        -0.0100975439        0.0014812829       -0.0104710469
 Si        -0.0112544569       -0.0114898411        0.0088993639
 Si         0.0005372564       -0.0042321301        0.0037376275
 Si        -0.0129684480        0.0033463879       -0.0127500655
 Si         0.0119318007       -0.0088465869        0.0046823255
 Si         0.0084606014       -0.0034821910       -0.0083748726
 Si        -0.0119721850        0.0075873371       -0.0141286428
 Si        -0.0125811730        0.0092834227       -0.0050087222
 Si         0.0008213482        0.0016625004        0.0196928763
 Si        -0.0010178246       -0.0028793903        0.0022694471
 Si         0.0024498437        0.0088067976       -0.0006615063
 Si         0.0161102708       -0.0066959189       -0.0625947385
 Si         0.0079240105        0.0032105682       -0.0085655153
 Si        -0.0074468356       -0.0196532690       -0.0035804119
 Si         0.0150821597        0.0156857530       -0.0242176644
 Si        -0.0033757010       -0.0042996954       -0.0137002935
 Si         0.0411999039        0.0184885577       -0.0063280212
 Si        -0.0209365603        0.0168143495       -0.0095181061
 Si         0.0056666312        0.0166428173       -0.0018616680
 Si        -0.0152576204       -0.0366459966       -0.0054230019
 Si         0.0154160341       -0.0095611823        0.0124060759
 Si         0.0014394227       -0.0042174291        0.0167991430
 Si        -0.0082294062       -0.0020253653        0.0204473907
 Si        -0.0126715637        0.0049589353        0.0249600194
 Si        -0.0144056772        0.0009813246       -0.0186572468
 Si         0.0104015167        0.0068046883        0.0054550378
 Si         0.0127755234       -0.0010852863       -0.0294723464
 Si         0.0072417209       -0.0156308180        0.0090045850
 Si         0.0164842180       -0.0034129853       -0.0132547975
 Si        -0.0186803854        0.0051783223       -0.0089499587
 Si         0.0020414147        0.0106956327        0.0003492809
 Si         0.0211949628       -0.0138074276       -0.0165700697
 Si        -0.0085734300        0.0038630431       -0.0013178332
 Si        -0.0099853345       -0.0014964403       -0.0222322190
 Si         0.0239218903        0.0033544939        0.0400491291
 Si         0.0161237391       -0.0089999501        0.0178818398
 Si         0.0254220370        0.0084633962        0.0049707388
 Si         0.0062833319       -0.0023693171        0.0169241587
 Si        -0.0167856326       -0.0170849632       -0.0082143459
 Si         0.0191204378        0.0013527619       -0.0274353657
 Si         0.0294640405       -0.0306714045        0.0170947307
 Si        -0.0444331367       -0.0380985453        0.0112287455
 Si         0.0015986071       -0.0300246014        0.0468692533
 Si        -0.0131743893        0.0333616445       -0.0223586306
 Si        -0.0128874741        0.0074853838       -0.0011491208
 Si         0.0056108070       -0.0131608529       -0.0060672511
 Si        -0.0262326227        0.0094671823        0.0148826357
 Si        -0.0007893770        0.0171470300        0.0055638068
 Si         0.0146532525       -0.0078005071       -0.0244759662
 Si         0.0201820367       -0.0012422146        0.0196049873
 Si         0.0138641978        0.0012375586       -0.0103487246
 Si        -0.0009546133       -0.0051345553        0.0018267623
 Si        -0.0012764735       -0.0047796120        0.0171065964
 Si        -0.0042654516       -0.0010902232        0.0084388287
 Si        -0.0065446458       -0.0139880874       -0.0165045102
 Si         0.0092694479       -0.0153851402        0.0053282369
 Si        -0.0025901302       -0.0133004994        0.0182723251
 Si         0.0153176441        0.0070270019       -0.0308850614
 Si         0.0339075835       -0.0023526760        0.0079121832
 Si        -0.0000844731        0.0146315481        0.0153377844
 Si         0.0479572828       -0.0167452831       -0.0288775701
  O        -0.0154898105       -0.0202310713       -0.0049430550
  H         0.0038268358        0.0342213266        0.0058166848
 Si         0.0161319787       -0.0115611775       -0.0009204598
  O        -0.0408366563        0.0393364166       -0.0180998172
  H         0.0431658708       -0.0169574504        0.0039584743
 Si         0.0549688017       -0.0242756363       -0.0184459767
  O        -0.0037616645        0.0608766555        0.0170193278
  H        -0.0075717807       -0.0376074099       -0.0098257755
 Si         0.0052940587        0.0058800699        0.0187056850
 Si        -0.0030702817        0.0054505286        0.0031177016
 Si        -0.0023957326       -0.0188442408       -0.0393156172
 Si        -0.0123414725        0.0078806744        0.0035662645
 Si        -0.0127504925       -0.0067044812        0.0012024344
 Si        -0.0026833247       -0.0012857605        0.0023011804
 Si        -0.0149343196        0.0227791621       -0.0095039487
  O         0.0034385528        0.0058530576        0.0158680044
  H        -0.0032680911        0.0036168468       -0.0034638790
 Si         0.0041475009       -0.0217488694        0.0027653712
  O         0.0004046655        0.0039848333       -0.0093919348
  H        -0.0015562289        0.0062912346        0.0057513785
 Si        -0.0140860927       -0.0058691358       -0.0091908950
  O        -0.0016096102       -0.0166295905        0.0251208809
  H        -0.0004079868        0.0167789084       -0.0148337033
 Si        -0.0389659409        0.0143103863        0.0057249162
 Si        -0.0173710114       -0.0093223269       -0.0060969538
 Si        -0.0487379204       -0.0205478337        0.0086432437
  O        -0.0058267942       -0.0176399285       -0.0234867205
  O        -0.0039541186        0.0118436017       -0.0057266514
  O         0.0004574034        0.0330070292        0.0067362842
  O         0.0062729670        0.0071635491       -0.0087424112
  O        -0.0079828152       -0.0049600810        0.0168267059
  O         0.0314980414        0.0048432799       -0.0561267218
  O         0.0192969248       -0.0038831714       -0.0327442570
  O        -0.0181473785        0.0089794835        0.0354948916
  O         0.0121116279        0.0199837845       -0.0205625965
  O        -0.0348746321       -0.0173257362        0.0025402463
  O        -0.0077443908        0.0031563381       -0.0021237881
  O         0.0576416543        0.0313004436       -0.0110159337
  O         0.0129087954        0.0313204667       -0.0214894820
  O        -0.0035892893       -0.0143842139        0.0125382932
  O         0.0107856686       -0.0160060366       -0.0090151549
  O        -0.0138135782        0.0028638840       -0.0058743463
  O        -0.0103538093       -0.0046112714       -0.0018209239
  O        -0.0112872786       -0.0046486463       -0.0094829458
  O        -0.0116623862       -0.0061029458        0.0003306662
  O        -0.0123738739       -0.0113729919       -0.0001403055
  O        -0.0058357467        0.0017933609       -0.0081080821
  O        -0.0028147962        0.0094696099        0.0035273834
  O         0.0084464920       -0.0040220620        0.0183993617
  O        -0.0277894803       -0.0078276760        0.0079744015
  O        -0.0022337534       -0.0081291529        0.0534949808
  O         0.0111679942       -0.0206247733        0.0019345563
  O        -0.0137163220       -0.0026541720        0.0103965505
  O         0.0095324763        0.0188743268        0.0345567920
  O        -0.0375026193       -0.0040106462       -0.0377970524
  O        -0.0208807883        0.0129317363       -0.0071541824
  O        -0.0354079461       -0.0212700413       -0.0534538483
  O        -0.0023766507       -0.0067808500       -0.0022026312
  O        -0.0154115357        0.0107779672        0.0068042949
  O         0.0037085623       -0.0266689305       -0.0143888031
  O        -0.0131300307        0.0142823422        0.0034172886
  O         0.0220489457        0.0228076911        0.0036857304
  O         0.0235582862        0.0086221006        0.0170277404
  O        -0.0079577249        0.0070430663        0.0088117543
  O        -0.0326354261       -0.0110164792        0.0165729381
  O        -0.0307585261       -0.0056211917       -0.0044808884
  O         0.0382773799        0.0081726273        0.0437504360
  O        -0.0045352542        0.0059220727        0.0044283136
  O        -0.0133137330       -0.0055600403       -0.0164954713
  O        -0.0157473080       -0.0134800562       -0.0227673849
  O         0.0421892283        0.0199050711        0.0285258857
  O         0.0052237759        0.0067278793        0.0051901973
  O        -0.0001111193       -0.0060176909       -0.0087233072
  O         0.0171739499        0.0005436359        0.0076138390
  O        -0.0060769660       -0.0002962678       -0.0094893179
  O         0.0230768561        0.0022177336        0.0023469393
  O        -0.0305819976       -0.0048052304        0.0250935678
  O        -0.0026347634       -0.0514970574       -0.0446046764
  O        -0.0035063179       -0.0064504503       -0.0202039794
  O        -0.0059326536       -0.0118670458        0.0088098916
 Si        -0.0057423064        0.0021134430        0.0110248838
 Si         0.0030824152       -0.0090742966        0.0127555668
 Si         0.0105498481       -0.0112255730        0.0042638419
 Si         0.0076603901       -0.0128337975       -0.0123669855
 Si         0.0094634293        0.0012303075       -0.0318237161
 Si         0.0213418431        0.0029406620       -0.0037925306
 Si        -0.0011266464        0.0207204567       -0.0029496454
 Si        -0.0114516460       -0.0061070148        0.0295386969
 Si        -0.0136463817       -0.0030427632        0.0118079409
 Si        -0.0065480711        0.0344452391       -0.0073107701
 Si        -0.0073681440       -0.0203256522       -0.0023384841
 Si         0.0197945411        0.0164335455       -0.0047094447
 Si         0.0241901789        0.0058212786       -0.0059861047
 Si         0.0113883595       -0.0217711283       -0.0034347953
 Si         0.0028613229       -0.0063095396       -0.0199397421
 Si         0.0040639684       -0.0031713203       -0.0330112239
 Si        -0.0097530903        0.0139578937        0.0088291932
 Si         0.0060361300        0.0098556511        0.0010217769
 Si        -0.0090454272       -0.0074893433       -0.0060563089
 Si        -0.0074895908       -0.0076162774        0.0147105660
 Si        -0.0082027678        0.0218800681       -0.0084659061
 Si        -0.0045175556        0.0143009738       -0.0062917298
 Si         0.0006073091       -0.0140498035        0.0039959941
 Si         0.0026125715        0.0218848297       -0.0208288483
 Si        -0.0022127737       -0.0115914894        0.0012119730
 Si         0.0002956820       -0.0044478948       -0.0004468580
 Si        -0.0106156601       -0.0109608842       -0.0042859931
 Si         0.0007146889       -0.0070436049        0.0066991480
 Si         0.0098317699        0.0224035757       -0.0074035418
 Si        -0.0051759792        0.0100695409       -0.0007135045
 Si        -0.0131823358       -0.0033459580        0.0014128599
 Si        -0.0170367581        0.0208328544        0.0143786588
 Si         0.0014888417       -0.0008572699        0.0048871785
 Si        -0.0250272937       -0.0161888432       -0.0079505273
 Si        -0.0110146159       -0.0093862064        0.0037122615
 Si        -0.0105871081        0.0137995930        0.0139088854
 Si        -0.0178858981       -0.0000107021       -0.0288246685
 Si         0.0194008850       -0.0079331553        0.0180173953
 Si         0.0197022310        0.0281591575       -0.0222535259
 Si         0.0091641451       -0.0034148142       -0.0087077601
 Si        -0.0085871765        0.0208363047       -0.0040055034
 Si         0.0015313165       -0.0227845172        0.0053105546
 Si         0.0056447220        0.0107259545        0.0115456828
 Si         0.0079000436        0.0018816956        0.0146893899
 Si        -0.0203622429       -0.0034527006        0.0045551217
 Si         0.0183204997       -0.0164043963        0.0063583718
  O        -0.0333944200       -0.0337431628        0.0179212459
  H         0.0187119726        0.0158063269        0.0104557222
 Si        -0.0365617683       -0.0094568204       -0.0157126887
  O        -0.0128117486        0.0006294689        0.0244368500
  H         0.0018387669       -0.0040357908       -0.0049672397
 Si         0.0157664581       -0.0108223454        0.0011446522
  O         0.0140554630        0.0212381023        0.0213282433
  H        -0.0061072083       -0.0139132182       -0.0067401062
 Si        -0.0330784130        0.0223168717       -0.0411296055
 Si         0.0378647003       -0.0096676808        0.0187493412
 Si         0.0075746832       -0.0044399444        0.0450815108
 Si         0.0015826166       -0.0063984410       -0.0062150666
 Si         0.0057731325        0.0021801402       -0.0043212630
 Si        -0.0113559127       -0.0061409914        0.0215489760
 Si         0.0059369434        0.0029606568       -0.0298198347
 Si        -0.0176238811        0.0018885506        0.0022703748
 Si         0.0109920780        0.0055527446        0.0089143156
 Si         0.0104233891       -0.0005808752       -0.0076205480
 Si         0.0119943189       -0.0119197243       -0.0041591568
 Si         0.0182749784        0.0027496437       -0.0015210759
 Si         0.0009007451        0.0039693791       -0.0023439109
 Si        -0.0235563508        0.0090539453       -0.0080793332
 Si        -0.0255617222        0.0045189941       -0.0124407426
 Si        -0.0037213231        0.0104114301       -0.0082985569
 Si        -0.0079237486       -0.0094535259       -0.0050006889
 Si        -0.0212050778       -0.0101305315        0.0243210895
 Si         0.0151545081        0.0006718645       -0.0052653755
 Si         0.0022316995       -0.0004104484        0.0154572228
 Si        -0.0097400644        0.0080929274        0.0152529376
 Si         0.0031587503        0.0160012756        0.0010656081
 Si        -0.0204334612        0.0186754877       -0.0010228969
 Si        -0.0100507070        0.0041448360       -0.0115585732
 Si         0.0058968549       -0.0009813433       -0.0023380120
 Si         0.0205415462        0.0018538918        0.0092797393
 Si        -0.0053527767        0.0193119370        0.0019413929
 Si        -0.0082281972       -0.0010238350        0.0003657845
 Si        -0.0332018507       -0.0065684442        0.0275550862
 Si        -0.0099576472       -0.0017267161        0.0153876164
 Si        -0.0210832524        0.0013120487       -0.0018256155
 Si         0.0068663755       -0.0384169489       -0.0046164207
 Si         0.0261239858       -0.0030470326       -0.0162076092
 Si        -0.0083039891       -0.0060179070       -0.0054728526
 Si        -0.0090996589        0.0383198823        0.0048936799
 Si         0.0029834979       -0.0017908782       -0.0233108936
 Si         0.0330940035       -0.0235389511        0.0031951601
 Si         0.0214495249        0.0081078652       -0.0101085319
 Si         0.0080964515       -0.0061393708       -0.0114559932
 Si         0.0224726622       -0.0025206138       -0.0039520640
 Si         0.0349682435       -0.0052677569       -0.0030049882
 Si         0.0007551929       -0.0186437030       -0.0083839416
 Si        -0.0116864004       -0.0012300449       -0.0148666417
 Si         0.0220185475        0.0169738892        0.0025177435
 Si         0.0089094457        0.0011026036        0.0136224230
 Si        -0.0012964381        0.0217712866        0.0138720601
 Si         0.0027575969       -0.0162727731        0.0146279516
 Si        -0.0077295206        0.0054963443        0.0061473910
 Si         0.0048657147       -0.0151921273        0.0086762620
 Si        -0.0034223446        0.0004210697        0.0068106893
 Si         0.0005932469       -0.0176311633       -0.0030982045
 Si        -0.0031231608       -0.0008872982        0.0093637377
 Si         0.0081388064       -0.0021369670        0.0555817315
 Si         0.0455922844       -0.0144333722       -0.0238442091
 Si        -0.0231195567        0.0160700814       -0.0173872102
 Si        -0.0098574730        0.0212432906        0.0222981632
 Si        -0.0095260811       -0.0191687243       -0.0175793408
 Si         0.0165597310       -0.0093472973       -0.0063837110
  O        -0.0228422278       -0.0095724125       -0.0118953632
  H         0.0005433729       -0.0005789280        0.0020584319
 Si        -0.0014975400       -0.0101562217       -0.0197741768
  O        -0.0064940261        0.0053387675        0.0025832064
  H        -0.0010563510       -0.0015338398        0.0101020377
 Si         0.0066323158       -0.0347767854        0.0359898035
  O         0.0216279496       -0.0121354574        0.0283334871
  H        -0.0043975527        0.0221784829       -0.0294373310
 Si        -0.0061977746       -0.0177566566        0.0080365353
  O         0.0142025449        0.0170122414        0.0053464333
  H        -0.0012984522       -0.0022310565       -0.0017949875
 Si        -0.0169994090        0.0027848688       -0.0349484190
  O        -0.0254837155       -0.0064441028       -0.0330346477
  H         0.0048933906       -0.0045025493        0.0329699432
 Si         0.0026454641        0.0130953066       -0.0152869370
  O        -0.0056040931       -0.0199259513        0.0240324320
  H        -0.0031067796        0.0099605681       -0.0202860788
 Si         0.0187878270       -0.0063254389       -0.0070288414
 Si        -0.0052637625       -0.0001153406        0.0156605222
 Si         0.0010959498        0.0081297359       -0.0012325259
 Si         0.0036177642       -0.0070851485        0.0182414723
 Si        -0.0015818657       -0.0054934199        0.0189651952
 Si         0.0050598827        0.0073201293       -0.0162129496
 Si         0.0080887579       -0.0117962646        0.0015961208
 Si        -0.0052105038       -0.0081410138       -0.0027553821
 Si         0.0033858369       -0.0109918495        0.0032980149
 Si        -0.0093678635       -0.0083541705       -0.0048083102
 Si         0.0155072287       -0.0138195369        0.0041546108
 Si         0.0101564842       -0.0075118306       -0.0096750970
 Si         0.0139776300        0.0082268511        0.0042975579
 Si        -0.0104778116        0.0002423182        0.0159352015
 Si        -0.0130642637       -0.0066836030        0.0006096539
 Si        -0.0233263677       -0.0055075339       -0.0153346230
 Si        -0.0096943480       -0.0147819918       -0.0119154342
 Si         0.0022907890        0.0107023754       -0.0161434987
 Si        -0.0050543072        0.0036630538       -0.0082274902
 Si        -0.0069056938       -0.0026598633       -0.0080002947
 Si         0.0202843223        0.0226331530        0.0001097796
 Si         0.0045994728       -0.0078487988       -0.0010463283
 Si        -0.0093937071       -0.0072638289        0.0060070644
 Si         0.0116347480       -0.0044046692       -0.0043514268
 Si        -0.0052721214        0.0028356784        0.0218921249
 Si         0.0093366133       -0.0079908113       -0.0226497219
 Si        -0.0154799693        0.0157780247       -0.0083972786
 Si        -0.0030264952       -0.0176343390        0.0050701975
 Si         0.0524163940       -0.0417612616        0.0092053907
 Si        -0.0383418342        0.0232935271        0.0330063889
 Si         0.0148191957       -0.0104530942       -0.0025394041
 Si        -0.0043542266        0.0051446643       -0.0013612478
 Si        -0.0076581931        0.0121983506       -0.0040570491
 Si        -0.0220380860        0.0043868411       -0.0083130856
 Si         0.0243158341        0.0053534199       -0.0077260991
 Si        -0.0253640990       -0.0212773881        0.0325918397
 Si         0.0083284593       -0.0039000820       -0.0145234170
 Si        -0.0104852384        0.0011248327       -0.0178178423
 Si         0.0193882390        0.0009645324       -0.0212002780
 Si        -0.0016046446        0.0221807070       -0.0153678247
 Si         0.0096616782       -0.0125278910        0.0049999802
 Si        -0.0196607661        0.0073395241       -0.0012579998
 Si         0.0091904535       -0.0037254816       -0.0040132035
 Si         0.0142811705       -0.0055881583       -0.0005507210
 Si         0.0147190729        0.0195840318       -0.0094462952
 Si        -0.0162874202       -0.0146119209       -0.0033679053
 Si         0.0125250085        0.0147445998       -0.0125776707
 Si        -0.0074642996        0.0146947944       -0.0095157279